<?xml version="1.0"?>
<VTKFile type="PolyData" version="0.1" byte_order="LittleEndian" compressor="vtkZLibDataCompressor">
	<PolyData>
		<Piece NumberOfPoints="28996" NumberOfVerts="0" NumberOfLines="0" NumberOfStrips="0" NumberOfPolys="57945">
		<PointData Normals="Normals">
		<DataArray type="Float32" Name="Normals" NumberOfComponents="3" format="ascii">
			-0.808284 -0.037390  0.587605
			-0.976890 -0.023067  0.212496
			-0.832934 -0.118086  0.540626
			-0.572048 -0.018708  0.820007
			-0.625598 -0.026302  0.779702
			-0.988720 -0.027297  0.147268
			-0.804852 -0.040264  0.592108
			-0.725335 -0.064247  0.685392
			-0.920411 -0.062893 -0.385861
			-0.976503 -0.099835 -0.190984
			-0.983606 -0.136882  0.117399
			-0.839227 -0.086899  0.536793
			-0.933507 -0.042890  0.355985
			-0.949432 -0.072656  0.305450
			-0.723814 -0.169940  0.668741
			-0.710140 -0.166765  0.684025
			-0.508594 -0.004891  0.860993
			-0.391112  0.009870  0.920290
			-0.488947 -0.047519  0.871018
			-0.567288 -0.120905  0.814596
			-0.991650 -0.095264  0.086918
			-0.817767 -0.030410  0.574746
			-0.826771 -0.158041 -0.539882
			-0.757537 -0.165489 -0.631467
			-0.786737 -0.073316 -0.612919
			-0.918221 -0.133788 -0.372788
			-0.911778 -0.083799 -0.402042
			-0.885762 -0.033213 -0.462950
			-0.981395 -0.166328 -0.095907
			-0.949928 -0.045283 -0.309169
			-0.982611 -0.174953  0.062192
			-0.970267 -0.151568  0.188704
			-0.806107 -0.064695  0.588222
			-0.902791 -0.064517  0.425212
			-0.698288 -0.045790  0.714351
			-0.940106  0.021156  0.340224
			-0.978789 -0.051595  0.198268
			-0.606228 -0.127786  0.784957
			-0.440660 -0.011121  0.897605
			-0.783016 -0.049727  0.620010
			-0.238958  0.037326  0.970312
			-0.359757 -0.052055  0.931593
			-0.257120 -0.004770  0.966368
			-0.406160 -0.027175  0.913398
			-0.966447 -0.151425  0.207487
			-0.961876 -0.138276 -0.235956
			-0.811293 -0.143162 -0.566841
			-0.737171 -0.160777 -0.656300
			-0.686437 -0.136539 -0.714256
			-0.687892 -0.078626 -0.721542
			-0.756569 -0.006179 -0.653885
			-0.752233  0.031934 -0.658123
			-0.760712  0.011109 -0.648995
			-0.783382 -0.052062 -0.619356
			-0.835547  0.042612 -0.547764
			-0.827309  0.037689 -0.560481
			-0.724614  0.017385 -0.688936
			-0.798112  0.019325 -0.602199
			-0.878338 -0.133650 -0.458978
			-0.906989 -0.023849 -0.420480
			-0.875791  0.093752 -0.473498
			-0.921623 -0.128149 -0.366318
			-0.937758  0.061901 -0.341727
			-0.958549 -0.044140 -0.281489
			-0.985418 -0.073168 -0.153616
			-0.989222 -0.146155 -0.008902
			-0.938363 -0.019091 -0.345123
			-0.968517 -0.035410 -0.246417
			-0.998924 -0.038243  0.026234
			-0.863147  0.090977  0.496690
			-0.760861  0.064336  0.645718
			-0.637462 -0.037579  0.769565
			-0.625288  0.090489  0.775130
			-0.903720  0.240932  0.353895
			-0.970265  0.187059  0.153606
			-0.543439  0.010046  0.839388
			-0.318918 -0.029507  0.947323
			-0.639284 -0.175382  0.748704
			-0.156969  0.044011  0.986622
			-0.161591 -0.012482  0.986779
			-0.196117  0.006249  0.980561
			-0.171878  0.031569  0.984612
			-0.278262 -0.028118  0.960094
			-0.201889 -0.012473  0.979329
			-0.464139  0.123892  0.877055
			-0.342175  0.204245  0.917170
			-0.301942  0.100808  0.947982
			-0.946563 -0.249728  0.204094
			-0.963521 -0.163383 -0.211974
			-0.896986 -0.137055 -0.420276
			-0.825167 -0.142158 -0.546709
			-0.753323 -0.145797 -0.641286
			-0.628733 -0.132099 -0.766318
			-0.620942 -0.097045 -0.777826
			-0.687724 -0.139916 -0.712361
			-0.611607 -0.063568 -0.788604
			-0.615002  0.029055 -0.787990
			-0.685815  0.004028 -0.727765
			-0.685889  0.024909 -0.727280
			-0.670491  0.080427 -0.737546
			-0.731972  0.147825 -0.665105
			-0.763738  0.145095 -0.629009
			-0.785603  0.089167 -0.612272
			-0.797489  0.190773 -0.572378
			-0.801970 -0.015043 -0.597175
			-0.833569  0.119078 -0.539429
			-0.799142  0.151156 -0.581828
			-0.674106  0.160835 -0.720911
			-0.696410  0.163070 -0.698871
			-0.778995  0.318122 -0.540339
			-0.843627  0.141054 -0.518070
			-0.892702  0.048127 -0.448070
			-0.918176  0.030448 -0.395002
			-0.942166  0.085437 -0.324074
			-0.975977  0.113806 -0.185785
			-0.974599  0.053524 -0.217468
			-0.993700  0.074538 -0.083695
			-0.990406 -0.016931 -0.137150
			-0.831905  0.266025  0.486995
			-0.740519  0.229119  0.631772
			-0.584867  0.253299  0.770565
			-0.933634  0.277900  0.226053
			-0.902226  0.277058  0.330495
			-0.981235  0.191437 -0.023034
			-0.969457  0.236182  0.066114
			-0.250377 -0.158383  0.955105
			-0.462543 -0.087509  0.882268
			-0.792835 -0.002692  0.609430
			-0.162877  0.049314  0.985413
			-0.150300  0.050278  0.987361
			-0.107868  0.013724  0.994070
			-0.045154 -0.120529  0.991682
			-0.165349  0.070109  0.983740
			-0.211865  0.084428  0.973645
			-0.267058  0.154340  0.951241
			-0.442436  0.298450  0.845682
			-0.332933  0.344446  0.877789
			-0.293500  0.249790  0.922747
			-0.892592 -0.253012  0.373181
			-0.972924 -0.165129  0.161716
			-0.982827 -0.156112 -0.098391
			-0.888438 -0.176969 -0.423510
			-0.964551 -0.149955 -0.217151
			-0.930960 -0.194456 -0.309030
			-0.829845 -0.164199 -0.533288
			-0.768579 -0.155706 -0.620518
			-0.541899 -0.107177 -0.833581
			-0.545192 -0.120803 -0.829561
			-0.590628 -0.126718 -0.796933
			-0.654355 -0.144889 -0.742177
			-0.490871 -0.070253 -0.868395
			-0.741474 -0.174993 -0.647760
			-0.510579 -0.004672 -0.859818
			-0.550923  0.087811 -0.829924
			-0.626571  0.223057 -0.746762
			-0.674537  0.138194 -0.725191
			-0.662911  0.235534 -0.710684
			-0.683871  0.240655 -0.688771
			-0.746815  0.209883 -0.631044
			-0.797110  0.182987 -0.575440
			-0.784038  0.171352 -0.596592
			-0.793324  0.144521 -0.591397
			-0.793070  0.333893 -0.509467
			-0.861687  0.088206 -0.499715
			-0.892694 -0.099178 -0.439615
			-0.916718 -0.116412 -0.382199
			-0.955292 -0.010526 -0.295475
			-0.945695 -0.141642 -0.292574
			-0.970093  0.099714 -0.221308
			-0.983597  0.180379  0.000941
			-0.815558  0.275153  0.509074
			-0.680173  0.300513  0.668623
			-0.555023  0.319003  0.768236
			-0.969375  0.217606  0.113840
			-0.948858  0.217774  0.228566
			-0.903553  0.219990  0.367690
			-0.157906 -0.112125  0.981068
			-0.296436 -0.106971  0.949043
			-0.651164  0.018776  0.758705
			-0.602612 -0.232204  0.763505
			-0.487278 -0.122135  0.864664
			-0.848935 -0.132188  0.511700
			-0.820955 -0.035205  0.569907
			-0.819510 -0.032911  0.572119
			-0.776620 -0.021641  0.629597
			-0.142408  0.051332  0.988476
			-0.090364  0.054952  0.994392
			-0.099116  0.035792  0.994432
			-0.051359  0.028633  0.998270
			-0.159861  0.040823  0.986295
			-0.152128  0.027370  0.987982
			-0.017711 -0.061324  0.997961
			-0.053185 -0.127775  0.990376
			-0.060260 -0.120445  0.990889
			-0.014486  0.021871  0.999656
			-0.148504  0.191913  0.970111
			-0.138260  0.112903  0.983940
			-0.187804  0.217382  0.957849
			-0.235803  0.307023  0.922027
			-0.277925  0.321075  0.905355
			-0.429453  0.342529  0.835610
			-0.355045  0.366152  0.860160
			-0.286479  0.396072  0.872386
			-0.947698 -0.151771  0.280774
			-0.869708 -0.223607  0.440009
			-0.812701 -0.233992  0.533634
			-0.941254 -0.163238  0.295626
			-0.985028 -0.077023  0.154229
			-0.995353 -0.090194  0.033715
			-0.978289 -0.155975 -0.136466
			-0.899387 -0.235291 -0.368431
			-0.851040 -0.222074 -0.475829
			-0.824409 -0.170811 -0.539605
			-0.842801 -0.148231 -0.517411
			-0.953381 -0.189179 -0.235107
			-0.932833 -0.233568 -0.274349
			-0.394259 -0.089618 -0.914619
			-0.399993 -0.087340 -0.912347
			-0.463408 -0.122603 -0.877623
			-0.596030 -0.151552 -0.788530
			-0.668392 -0.187271 -0.719848
			-0.399126 -0.156276 -0.903480
			-0.342720 -0.080923 -0.935946
			-0.357186 -0.028820 -0.933588
			-0.813416 -0.217319 -0.539561
			-0.788117 -0.202754 -0.581174
			-0.759815 -0.217079 -0.612828
			-0.439703  0.006039 -0.898123
			-0.532234  0.265590 -0.803859
			-0.424154  0.166877 -0.890082
			-0.572032  0.278476 -0.771512
			-0.635228  0.271709 -0.722952
			-0.664719  0.262472 -0.699469
			-0.661332  0.257083 -0.704662
			-0.722187  0.193068 -0.664207
			-0.690519  0.204441 -0.693821
			-0.818621  0.138707 -0.557333
			-0.763147  0.156439 -0.627004
			-0.878139 -0.029507 -0.477494
			-0.900915 -0.227120 -0.369823
			-0.864930 -0.304657 -0.398849
			-0.879209 -0.281424 -0.384439
			-0.872814 -0.331938 -0.357789
			-0.903154 -0.284053 -0.321910
			-0.983512 -0.121905 -0.133581
			-0.992779 -0.001622 -0.119945
			-0.906095 -0.361457 -0.219863
			-0.957461 -0.260106 -0.124956
			-0.989760  0.113426 -0.086661
			-0.995592  0.084011  0.041688
			-0.969139  0.126722  0.211451
			-0.786395  0.230183  0.573235
			-0.885395  0.192987  0.422885
			-0.677069  0.250032  0.692142
			-0.528496  0.265120  0.806476
			-0.133485  0.027290  0.990675
			-0.216354 -0.028308  0.975904
			-0.274560 -0.005163  0.961556
			-0.484021 -0.024559  0.874712
			-0.443415 -0.058100  0.894431
			-0.772929 -0.089168  0.628196
			-0.638864 -0.165187  0.751376
			-0.559079 -0.126564  0.819397
			-0.850515 -0.067505  0.521601
			-0.078523  0.061585  0.995008
			-0.118721  0.070874  0.990395
			 0.085234  0.093831  0.991933
			-0.026390  0.058162  0.997958
			-0.122930  0.054683  0.990908
			 0.000953  0.092998  0.995666
			-0.060014  0.056275  0.996610
			-0.143157  0.028672  0.989285
			-0.143712 -0.014567  0.989512
			-0.185456 -0.018742  0.982474
			-0.153000  0.075610  0.985329
			-0.060433  0.030993  0.997691
			-0.070155  0.114051  0.990995
			-0.155697  0.345717  0.925331
			-0.127903  0.263923  0.956026
			-0.121984  0.190555  0.974068
			-0.199077  0.348400  0.915962
			-0.183287  0.373922  0.909169
			-0.403871  0.270973  0.873763
			-0.333972  0.280613  0.899844
			-0.258946  0.304208  0.916736
			-0.948645 -0.046901  0.312846
			-0.977700 -0.020891  0.208964
			-0.963639 -0.012325  0.266921
			-0.979940 -0.193730 -0.046761
			-0.975792 -0.158265  0.150939
			-0.955588 -0.226281 -0.188806
			-0.918007 -0.271065 -0.289459
			-0.868331 -0.260024 -0.422361
			-0.190867 -0.053246 -0.980171
			-0.256521 -0.086951 -0.962620
			-0.326963 -0.099131 -0.939824
			-0.206295 -0.084776 -0.974811
			-0.249729 -0.118298 -0.961062
			-0.466778 -0.162020 -0.869407
			-0.606082 -0.164941 -0.778113
			-0.516782 -0.132363 -0.845823
			-0.613744 -0.161220 -0.772869
			-0.671242 -0.215416 -0.709247
			-0.773270 -0.277153 -0.570299
			-0.307244 -0.130155 -0.942688
			-0.392376 -0.126295 -0.911093
			-0.339406 -0.149901 -0.928619
			-0.342914  0.017728 -0.939199
			-0.325233  0.045947 -0.944517
			-0.825886 -0.221303 -0.518591
			-0.792398 -0.195707 -0.577758
			-0.825301 -0.188388 -0.532343
			-0.810902 -0.238852 -0.534217
			-0.490693  0.280917 -0.824807
			-0.445929  0.285084 -0.848454
			-0.325287  0.148500 -0.933882
			-0.358383  0.257709 -0.897300
			-0.622226  0.173613 -0.763344
			-0.522303  0.184287 -0.832609
			-0.672821  0.163088 -0.721605
			-0.694397  0.117235 -0.709978
			-0.693080  0.116903 -0.711318
			-0.731629  0.025319 -0.681232
			-0.757735  0.025397 -0.652068
			-0.707620  0.070748 -0.703042
			-0.810507  0.024730 -0.585207
			-0.855449 -0.003116 -0.517877
			-0.857956 -0.233620 -0.457529
			-0.864872 -0.373027 -0.335928
			-0.832457 -0.367559 -0.414627
			-0.816964 -0.459169 -0.348903
			-0.730835 -0.593651 -0.336836
			-0.774692 -0.516725 -0.364484
			-0.851380 -0.429704 -0.300845
			-0.777636 -0.553396 -0.298389
			-0.976091 -0.216988 -0.012724
			-0.998345 -0.040364  0.040958
			-0.915223 -0.395184 -0.078724
			-0.833264 -0.540787 -0.114983
			-0.819512 -0.528974 -0.220423
			-0.931860 -0.358786  0.053942
			-0.981329 -0.027044  0.190424
			-0.913455  0.062682  0.402082
			-0.824793  0.122363  0.552036
			-0.747510  0.131907  0.651022
			-0.672521  0.097600  0.733614
			-0.556284  0.148628  0.817593
			-0.444649  0.176154  0.878212
			-0.271541  0.115147  0.955514
			-0.137629  0.127182  0.982285
			-0.461211  0.102005  0.881408
			-0.603538  0.088686  0.792387
			-0.698073  0.040695  0.714870
			-0.622292 -0.041472  0.781686
			-0.751526 -0.040414  0.658465
			-0.754911  0.078813  0.651075
			-0.884094  0.033650  0.466096
			-0.026061  0.116125  0.992893
			-0.090865  0.068101  0.993532
			-0.108086  0.159643  0.981240
			 0.227682  0.134488  0.964403
			 0.266956  0.149777  0.951999
			 0.250528  0.077832  0.964975
			 0.069845  0.062535  0.995596
			 0.070446  0.106670  0.991796
			-0.066558  0.047770  0.996638
			-0.104808  0.147174  0.983542
			-0.114520 -0.031865  0.992910
			-0.149648 -0.086432  0.984954
			-0.178516 -0.027150  0.983562
			-0.183562 -0.112153  0.976589
			-0.150001  0.046449  0.987594
			-0.157608  0.148270  0.976307
			-0.171430  0.179361  0.968732
			-0.197785  0.384691  0.901606
			-0.173071  0.345775  0.922218
			-0.121978  0.386962  0.913992
			-0.143993  0.385254  0.911507
			-0.115569  0.321783  0.939734
			-0.130150  0.254036  0.958398
			-0.142012  0.197634  0.969935
			-0.209247  0.302929  0.929758
			-0.381373  0.124474  0.916003
			-0.310715  0.135441  0.940804
			-0.215917  0.086201  0.972599
			-0.931703  0.030953  0.361900
			-0.893435  0.053295  0.446020
			-0.887097 -0.036298  0.460154
			-0.949330 -0.274990 -0.152159
			-0.964967 -0.261524  0.021063
			-0.919835 -0.249100  0.303073
			-0.959790 -0.256963  0.113018
			-0.913257 -0.297951 -0.277825
			-0.872379 -0.252647 -0.418479
			-0.009354 -0.042384 -0.999058
			-0.053155 -0.044003 -0.997616
			-0.129259 -0.074184 -0.988832
			-0.212483 -0.115156 -0.970356
			 0.015728 -0.061604 -0.997977
			-0.060561 -0.071941 -0.995569
			-0.040546 -0.072572 -0.996539
			-0.334795 -0.109230 -0.935939
			-0.106212 -0.065032 -0.992215
			-0.519344 -0.116790 -0.846547
			-0.585137 -0.135651 -0.799508
			-0.343605 -0.084205 -0.935331
			-0.547584 -0.099652 -0.830795
			-0.528018 -0.152766 -0.835380
			-0.641258 -0.188798 -0.743736
			-0.579969 -0.188388 -0.792557
			-0.734379 -0.189652 -0.651705
			-0.797044 -0.278561 -0.535841
			-0.853171 -0.222352 -0.471868
			-0.363877 -0.023214 -0.931158
			-0.240611 -0.082453 -0.967113
			-0.837596 -0.192207 -0.511360
			-0.866018 -0.151529 -0.476500
			-0.887741 -0.124156 -0.443284
			-0.382902  0.289250 -0.877337
			-0.288548  0.267194 -0.919428
			-0.233483  0.144831 -0.961514
			-0.624946 -0.023917 -0.780301
			-0.676770 -0.016726 -0.736004
			-0.556600 -0.057685 -0.828776
			-0.432084  0.170739 -0.885523
			-0.473554 -0.058963 -0.878789
			-0.696522 -0.031840 -0.716828
			-0.699536 -0.098066 -0.707836
			-0.702301 -0.058254 -0.709492
			-0.707151 -0.122534 -0.696365
			-0.713385 -0.028608 -0.700188
			-0.702772 -0.226432 -0.674418
			-0.702624 -0.233222 -0.672255
			-0.724536 -0.172263 -0.667363
			-0.752043 -0.152611 -0.641203
			-0.795669 -0.171932 -0.580819
			-0.844356 -0.172137 -0.507378
			-0.805731 -0.421509 -0.416086
			-0.761021 -0.540331 -0.359012
			-0.543587 -0.796927 -0.263477
			-0.608356 -0.749621 -0.260712
			-0.698782 -0.659146 -0.277903
			-0.714749 -0.674490 -0.184924
			-0.612736 -0.764762 -0.199232
			-0.973570 -0.191071  0.125115
			-0.847078 -0.531163  0.018050
			-0.734006 -0.676481 -0.060076
			-0.920786 -0.313127  0.232603
			-0.856716 -0.487023  0.169842
			-0.947725 -0.120019  0.295657
			-0.880234 -0.046742  0.472232
			-0.790517 -0.009154  0.612371
			-0.651687 -0.012027  0.758393
			-0.741772 -0.134685  0.656989
			-0.521094  0.019204  0.853283
			-0.406845 -0.029836  0.913010
			-0.442170  0.161697  0.882236
			-0.289275  0.186654  0.938872
			-0.646935  0.141388  0.749323
			-0.838802  0.095582  0.535981
			 0.059759  0.139244  0.988453
			-0.059310  0.090917  0.994091
			 0.072975  0.128285  0.989049
			-0.073530  0.154426  0.985264
			-0.100241  0.168361  0.980615
			-0.109735  0.271919  0.956043
			 0.393068  0.138151  0.909072
			 0.390146  0.145898  0.909120
			 0.203902  0.089279  0.974912
			 0.317342  0.091028  0.943932
			 0.468854  0.143082  0.871610
			 0.418536  0.106030  0.901990
			 0.149349  0.037648  0.988067
			 0.301474  0.065549  0.951219
			 0.022870  0.039049  0.998976
			 0.070982  0.022410  0.997226
			 0.105115  0.072550  0.991810
			-0.024803  0.014083  0.999593
			-0.062961 -0.062450  0.996060
			-0.102992 -0.097900  0.989853
			-0.149526 -0.145377  0.978012
			-0.157542 -0.118277  0.980404
			-0.115737 -0.139173  0.983481
			-0.133586 -0.070485  0.988528
			-0.117023 -0.179744  0.976728
			-0.183349  0.017489  0.982892
			-0.249545  0.121143  0.960756
			-0.183078 -0.086152  0.979316
			-0.307706  0.184666  0.933389
			-0.152996  0.163729  0.974569
			-0.195076  0.177642  0.964567
			-0.169554  0.320464  0.931963
			-0.210559  0.253406  0.944166
			-0.134832  0.414137  0.900173
			-0.123159  0.419434  0.899393
			-0.171749  0.225871  0.958898
			-0.156652  0.315556  0.935887
			-0.134681  0.404839  0.904415
			-0.223964  0.107043  0.968701
			-0.172932  0.007798  0.984903
			-0.307368 -0.025884  0.951238
			-0.208495 -0.031829  0.977506
			-0.138654 -0.161749  0.977043
			-0.803393  0.088584  0.588823
			-0.841098  0.074323  0.535752
			-0.690243  0.032026  0.722868
			-0.779169 -0.151282  0.608284
			-0.944000 -0.306379 -0.122460
			-0.947946 -0.315066  0.046177
			-0.917491 -0.332257  0.218667
			-0.850464 -0.327954  0.411288
			-0.785097 -0.271219  0.556833
			-0.934343 -0.318727 -0.159425
			-0.914697 -0.259674 -0.309675
			-0.881858 -0.193427 -0.430014
			 0.127969 -0.038648 -0.991025
			 0.121966 -0.018390 -0.992364
			 0.009725 -0.043796 -0.998993
			-0.090991 -0.083674 -0.992330
			-0.155953 -0.126648 -0.979612
			 0.166453 -0.044964 -0.985024
			 0.062229 -0.050450 -0.996786
			 0.054571 -0.063822 -0.996468
			 0.034032 -0.048238 -0.998256
			 0.073751 -0.065353 -0.995133
			 0.059117 -0.028138 -0.997854
			 0.015374 -0.044308 -0.998900
			-0.171186 -0.056457 -0.983620
			-0.376169 -0.098300 -0.921322
			-0.431219 -0.143406 -0.890778
			-0.514435 -0.154474 -0.843501
			-0.739404 -0.172319 -0.650837
			-0.637127 -0.186453 -0.747867
			-0.704880 -0.181378 -0.685745
			-0.740194 -0.220777 -0.635114
			-0.566296 -0.262075 -0.781425
			-0.441895 -0.187451 -0.877263
			-0.492036 -0.147986 -0.857905
			-0.829552 -0.165434 -0.533362
			-0.838335 -0.202070 -0.506321
			-0.903447 -0.148191 -0.402272
			-0.902493 -0.166825 -0.397085
			-0.911383 -0.125127 -0.392077
			-0.149328 -0.033797 -0.988210
			-0.922565 -0.171929 -0.345419
			-0.932631 -0.078415 -0.352208
			-0.945959 -0.035367 -0.322351
			-0.335701  0.223492 -0.915072
			-0.269456  0.248492 -0.930401
			-0.212923  0.202234 -0.955911
			-0.143665  0.132273 -0.980747
			-0.153575  0.278713 -0.948016
			-0.204629  0.200687 -0.958046
			-0.582249 -0.313830 -0.749998
			-0.659103 -0.296173 -0.691277
			-0.512011 -0.234555 -0.826334
			-0.544945 -0.325827 -0.772575
			-0.343198  0.066388 -0.936914
			-0.395876 -0.000529 -0.918304
			-0.405663 -0.324991 -0.854294
			-0.459740 -0.274106 -0.844692
			-0.360766 -0.114704 -0.925576
			-0.658074 -0.357789 -0.662515
			-0.698008 -0.289271 -0.655063
			-0.599835 -0.532099 -0.597552
			-0.631729 -0.469053 -0.617177
			-0.620708 -0.508455 -0.596821
			-0.589481 -0.496941 -0.636837
			-0.662485 -0.390008 -0.639536
			-0.657093 -0.442065 -0.610579
			-0.722352 -0.456726 -0.519238
			-0.803334 -0.353283 -0.479422
			-0.710414 -0.551732 -0.436924
			-0.710216 -0.612345 -0.347313
			-0.614203 -0.749522 -0.246924
			-0.392148 -0.904414 -0.168090
			-0.353426 -0.911774 -0.209183
			-0.446652 -0.868894 -0.213366
			-0.454441 -0.874768 -0.168121
			-0.601506 -0.792165 -0.103273
			-0.484319 -0.866902 -0.117968
			-0.754763 -0.654159  0.049078
			-0.610573 -0.791915 -0.008490
			-0.903372 -0.216226  0.370358
			-0.842173 -0.406678  0.354058
			-0.762508 -0.635636  0.120617
			-0.783644 -0.578213  0.227094
			-0.835241 -0.191717  0.515380
			-0.626527 -0.162427  0.762287
			-0.665368 -0.340323  0.664429
			-0.753635 -0.388975  0.529843
			-0.501177 -0.153966  0.851537
			-0.432067 -0.240698  0.869127
			-0.329211 -0.190774  0.924784
			-0.465275  0.164854  0.869679
			-0.658485  0.118099  0.743270
			-0.025486  0.209305  0.977518
			 0.077677  0.186499  0.979380
			 0.159593  0.193608  0.968011
			-0.089735  0.348490  0.933007
			 0.412344  0.091687  0.906403
			 0.502691  0.124678  0.855428
			 0.583210  0.145683  0.799151
			 0.560331  0.163492  0.811972
			 0.132039  0.070242  0.988753
			 0.304069  0.133620  0.943233
			 0.352832  0.103568  0.929937
			 0.706729  0.149498  0.691509
			 0.675550  0.108173  0.729336
			 0.568522  0.139258  0.810796
			 0.558559  0.149345  0.815910
			 0.395018  0.112769  0.911726
			 0.102032  0.046563  0.993691
			 0.236821  0.070125  0.969019
			 0.039820  0.054525  0.997718
			 0.074757  0.052496  0.995819
			 0.048172  0.035701  0.998201
			 0.018454  0.026419  0.999481
			-0.019383  0.009380  0.999768
			 0.082387  0.063593  0.994570
			-0.113583 -0.091592  0.989298
			-0.100197 -0.068543  0.992604
			-0.054623  0.015428  0.998388
			-0.069015 -0.075757  0.994735
			-0.065250 -0.081604  0.994527
			-0.073154 -0.061673  0.995412
			-0.092425 -0.132779  0.986827
			-0.112725 -0.221182  0.968696
			-0.146839 -0.177521  0.973101
			-0.069301 -0.152590  0.985857
			-0.312324 -0.017280  0.949819
			-0.425911  0.060587  0.902734
			-0.262986 -0.208879  0.941917
			-0.387010 -0.168532  0.906543
			-0.160853 -0.053079  0.985550
			-0.249940  0.097937  0.963295
			-0.177284  0.080297  0.980879
			-0.201958 -0.020248  0.979185
			-0.205954 -0.022725  0.978298
			-0.151726  0.381224  0.911947
			-0.142362  0.444150  0.884570
			-0.168423  0.123379  0.977963
			-0.189319 -0.004520  0.981905
			-0.153680  0.232465  0.960387
			-0.130443  0.442209  0.887376
			-0.193795 -0.112186  0.974607
			-0.287252 -0.092303  0.953397
			-0.153654 -0.139332  0.978252
			-0.174516 -0.160813  0.971434
			-0.126756 -0.292554  0.947811
			-0.021178 -0.326518  0.944954
			-0.057025 -0.415026  0.908021
			-0.502615 -0.077783  0.861004
			-0.638008 -0.133965  0.758287
			-0.660934 -0.206341  0.721519
			-0.933650 -0.357700 -0.018651
			-0.874645 -0.379688  0.301386
			-0.778982 -0.323984  0.536862
			-0.629550 -0.271900  0.727830
			-0.936848 -0.278190 -0.211958
			 0.269414 -0.024347 -0.962716
			 0.237554 -0.015495 -0.971251
			 0.181439 -0.022357 -0.983148
			 0.094725 -0.038992 -0.994740
			-0.008231 -0.050995 -0.998665
			-0.017119  0.015745 -0.999730
			-0.114296  0.011638 -0.993379
			 0.310205 -0.035743 -0.949998
			 0.279402 -0.053882 -0.958661
			 0.150974 -0.052288 -0.987154
			 0.171115 -0.047959 -0.984083
			 0.180870 -0.027057 -0.983135
			 0.219216 -0.037159 -0.974969
			-0.086359 -0.081288 -0.992942
			 0.060063 -0.077054 -0.995216
			-0.246730 -0.109371 -0.962893
			-0.420838 -0.124969 -0.898487
			-0.895559 -0.124193 -0.427259
			-0.835118 -0.147249 -0.529997
			-0.863322 -0.128298 -0.488071
			-0.932102 -0.108920 -0.345430
			-0.673016 -0.261854 -0.691724
			-0.885305 -0.158178 -0.437280
			-0.504623 -0.264306 -0.821887
			-0.354443 -0.103778 -0.929301
			-0.284812 -0.089368 -0.954408
			-0.307164 -0.146010 -0.940389
			-0.407944 -0.216442 -0.886981
			-0.942276 -0.101619 -0.319046
			-0.971376 -0.046314 -0.232990
			-0.967086 -0.038751 -0.251484
			-0.950697 -0.216028 -0.222500
			-0.962330 -0.107709 -0.249637
			-0.975366  0.027905 -0.218821
			-0.963610 -0.021652 -0.266435
			-0.980652  0.025448 -0.194098
			-0.298031  0.093677 -0.949948
			-0.201982  0.108442 -0.973367
			-0.197172  0.095202 -0.975735
			-0.176017  0.002482 -0.984384
			-0.081367  0.182930 -0.979753
			-0.208029  0.196191 -0.958245
			-0.093910  0.300062 -0.949286
			-0.150188  0.283621 -0.947102
			-0.073133  0.357516 -0.931039
			-0.206562  0.081010 -0.975074
			-0.456413 -0.628191 -0.630129
			-0.570340 -0.510261 -0.643698
			-0.535125 -0.614771 -0.579395
			-0.466015 -0.437955 -0.768782
			-0.358463 -0.459135 -0.812834
			-0.385572 -0.589865 -0.709502
			-0.330523 -0.307986 -0.892132
			-0.281884 -0.046556 -0.958318
			-0.539284 -0.667205 -0.513819
			-0.608787 -0.544148 -0.577305
			-0.628663 -0.480924 -0.611143
			-0.608546 -0.507658 -0.609881
			-0.635865 -0.484405 -0.600856
			-0.545172 -0.612593 -0.572291
			-0.548790 -0.650943 -0.524503
			-0.425172 -0.779364 -0.460240
			-0.472612 -0.709946 -0.522124
			-0.555730 -0.628405 -0.544309
			-0.500075 -0.745326 -0.440925
			-0.457127 -0.707462 -0.539010
			-0.563949 -0.560212 -0.606732
			-0.479167 -0.688157 -0.544830
			-0.530813 -0.649628 -0.544262
			-0.495777 -0.721245 -0.483746
			-0.614155 -0.574717 -0.540846
			-0.547948 -0.707344 -0.446562
			-0.632742 -0.647953 -0.424021
			-0.594262 -0.751061 -0.287681
			-0.431049 -0.882459 -0.188315
			-0.361854 -0.925505 -0.111813
			-0.258393 -0.959066 -0.115868
			-0.225440 -0.961907 -0.154633
			-0.304749 -0.940148 -0.152478
			-0.354416 -0.932453 -0.070150
			-0.473198 -0.879916 -0.042801
			-0.637572 -0.768578  0.052823
			-0.506928 -0.861924  0.010547
			-0.751485 -0.566586  0.338009
			-0.733534 -0.517236  0.440903
			-0.682371 -0.725677  0.088100
			-0.663704 -0.728798  0.168377
			-0.582379 -0.330230  0.742821
			-0.578122 -0.541152  0.610679
			-0.654933 -0.510715  0.556986
			-0.628931 -0.619857  0.469279
			-0.520412 -0.348406  0.779606
			-0.488948 -0.474462  0.731994
			-0.416883 -0.365249  0.832347
			-0.080005 -0.306014  0.948659
			-0.298168 -0.386264  0.872867
			 0.063903  0.321389  0.944789
			-0.013717  0.406285  0.913643
			 0.106613  0.223883  0.968767
			 0.141361  0.308947  0.940515
			-0.045227  0.472319  0.880266
			 0.435719  0.197564  0.878133
			 0.538102  0.102562  0.836617
			 0.555448  0.101272  0.825362
			 0.758564  0.162839  0.630923
			 0.645844  0.121455  0.753747
			 0.713521  0.150240  0.684336
			 0.111888  0.226722  0.967511
			 0.213500  0.192158  0.957859
			 0.283302  0.249213  0.926085
			 0.333430  0.255592  0.907467
			 0.361718  0.229565  0.903582
			 0.848007  0.138716  0.511510
			 0.854530  0.108481  0.507947
			 0.735367  0.147187  0.661492
			 0.795085  0.136204  0.591006
			 0.732839  0.137830  0.666296
			 0.421958  0.144465  0.895031
			 0.624125  0.149645  0.766860
			 0.488007  0.135649  0.862235
			 0.402944  0.144035  0.903820
			 0.282217  0.098502  0.954280
			 0.136067  0.070193  0.988210
			 0.184971  0.078108  0.979635
			 0.104386  0.069729  0.992089
			-0.042554  0.054744  0.997593
			 0.215043  0.068947  0.974168
			-0.160155 -0.026902  0.986725
			 0.099904  0.015195  0.994881
			 0.013749 -0.002351  0.999903
			-0.083050  0.090284  0.992447
			 0.174277  0.100184  0.979587
			 0.247847  0.124227  0.960802
			-0.314999 -0.118199  0.941703
			-0.248004  0.000280  0.968759
			-0.070714 -0.099034  0.992568
			-0.097747 -0.092150  0.990936
			-0.260803  0.014174  0.965288
			-0.319147  0.233283  0.918545
			-0.055574 -0.052167  0.997091
			 0.000000  0.000000  0.000000
			-0.061440 -0.072905  0.995445
			-0.181776 -0.227799  0.956590
			-0.317056 -0.276954  0.907068
			-0.092187 -0.175609  0.980134
			-0.065788 -0.053367  0.996406
			-0.089901 -0.117241  0.989026
			-0.442270 -0.260416  0.858243
			-0.534844 -0.261037  0.803617
			-0.545413 -0.198381  0.814352
			-0.185201 -0.299644  0.935903
			-0.090152 -0.322199  0.942369
			-0.107088 -0.159052  0.981445
			-0.322628 -0.210601  0.922799
			-0.224032 -0.279711  0.933580
			-0.205396 -0.281171  0.937419
			-0.147318  0.403112  0.903215
			-0.155085  0.260227  0.953011
			-0.164885 -0.062691  0.984318
			-0.155018  0.028261  0.987507
			-0.175244 -0.053404  0.983076
			-0.200736 -0.266780  0.942620
			-0.144936  0.056183  0.987845
			-0.141750  0.375665  0.915851
			-0.129212  0.373054  0.918768
			-0.102485  0.393475  0.913605
			-0.150955 -0.297476  0.942720
			-0.229271 -0.312838  0.921720
			-0.328316 -0.313134  0.891154
			-0.095661 -0.481202  0.871375
			 0.071805 -0.570252  0.818326
			-0.011079 -0.662601  0.748891
			-0.930729 -0.339258  0.136557
			-0.951900 -0.295650 -0.080476
			-0.809843 -0.338750  0.478961
			-0.793003 -0.346945  0.500775
			-0.870216 -0.340023  0.356523
			-0.708911 -0.323402  0.626783
			-0.661039 -0.292222  0.691110
			 0.377838 -0.031138 -0.925348
			 0.396697 -0.017793 -0.917777
			 0.355691 -0.009247 -0.934558
			 0.356170 -0.004125 -0.934412
			 0.217658 -0.023991 -0.975730
			 0.107448  0.097322 -0.989436
			-0.012977  0.247921 -0.968693
			 0.451198 -0.036663 -0.891671
			 0.422955 -0.032566 -0.905566
			 0.292578 -0.031167 -0.955734
			 0.353017  0.000753 -0.935617
			 0.371057 -0.000693 -0.928610
			 0.487762 -0.001560 -0.872975
			 0.461440 -0.032466 -0.886577
			 0.227176 -0.082243 -0.970375
			-0.055478 -0.082081 -0.995080
			 0.021731 -0.090258 -0.995681
			 0.007012 -0.068112 -0.997653
			 0.108847 -0.066837 -0.991809
			-0.152455 -0.068481 -0.985935
			-0.946816 -0.082833 -0.310931
			-0.970148 -0.045262 -0.238252
			-0.999694 -0.002595 -0.024593
			-0.980416 -0.063014 -0.186584
			-0.511325 -0.258811 -0.819490
			-0.621943 -0.206915 -0.755231
			-0.848690 -0.142694 -0.509278
			-0.975378 -0.050366 -0.214710
			-0.111577 -0.071461 -0.991183
			-0.220126 -0.125486 -0.967366
			-0.357743 -0.170476 -0.918128
			-0.449911 -0.210584 -0.867891
			-0.991925  0.013990 -0.126050
			-0.991246 -0.024713 -0.129698
			-0.994638  0.088370 -0.053715
			-0.995097  0.014595 -0.097820
			-0.990730  0.053840 -0.124725
			-0.971931 -0.225874 -0.065818
			-0.986985 -0.138454 -0.081804
			-0.986923 -0.037376 -0.156798
			-0.987987  0.109843 -0.108700
			-0.996185 -0.087152  0.004480
			-0.996764 -0.028730 -0.075080
			-0.996731  0.051106 -0.062580
			-0.175375 -0.055642 -0.982928
			-0.152159 -0.060326 -0.986513
			-0.132100 -0.138447 -0.981520
			-0.164532 -0.226182 -0.960089
			-0.154972 -0.213580 -0.964556
			-0.204113  0.115045 -0.972164
			-0.242959  0.019222 -0.969846
			-0.123664  0.176517 -0.976498
			-0.053011  0.320001 -0.945933
			 0.040489  0.388397 -0.920602
			 0.038111  0.356330 -0.933582
			-0.223130 -0.091891 -0.970448
			-0.333210 -0.828801 -0.449512
			-0.315334 -0.836765 -0.447648
			-0.327307 -0.806047 -0.493110