<?xml version="1.0"?>
<VTKFile type="PolyData" version="0.1" byte_order="LittleEndian" compressor="vtkZLibDataCompressor">
	<PolyData>
		<Piece NumberOfPoints="10319" NumberOfVerts="0" NumberOfLines="0" NumberOfStrips="0" NumberOfPolys="20615">
		<PointData Normals="Normals">
		<DataArray type="Float32" Name="Normals" NumberOfComponents="3" format="ascii">
			 0.609975 -0.674190  0.416412
			 0.561256 -0.804394  0.194789
			 0.762599 -0.635814  0.119095
			 0.278259 -0.868186  0.410883
			 0.377790 -0.733908  0.564495
			 0.586934 -0.594804  0.549287
			 0.725972 -0.586942  0.358419
			 0.586994 -0.780213 -0.216116
			 0.287324 -0.954897  0.074938
			 0.712928 -0.653200 -0.255075
			 0.791188 -0.611324 -0.017448
			 0.798340 -0.585163  0.142255
			 0.100955 -0.811136  0.576079
			 0.035238 -0.932601  0.359186
			 0.336189 -0.685842  0.645444
			 0.673496 -0.558448  0.484292
			 0.637065 -0.521764  0.567371
			 0.551014 -0.512708  0.658418
			 0.464889 -0.594819  0.655796
			 0.765714 -0.599585  0.232767
			 0.709883 -0.501409  0.494626
			 0.741263 -0.544431  0.392587
			 0.278826 -0.874234 -0.397456
			 0.311226 -0.669671 -0.674299
			 0.060231 -0.992840 -0.103158
			 0.600607 -0.616141 -0.509551
			 0.802001 -0.586117 -0.115159
			 0.800548 -0.595804  0.064340
			-0.022404 -0.816694  0.576635
			 0.044381 -0.755266  0.653914
			 0.172143 -0.725205  0.666667
			-0.042255 -0.998903  0.020208
			-0.045860 -0.888477  0.456624
			 0.312815 -0.626193  0.714163
			 0.665245 -0.469809  0.580282
			 0.606755 -0.447341  0.657065
			 0.522987 -0.411865  0.746225
			 0.444513 -0.513193  0.734195
			 0.775680 -0.601363  0.191527
			 0.690524 -0.421726  0.587643
			 0.751782 -0.583889  0.306428
			 0.700021 -0.490078  0.519418
			 0.084356 -0.817589 -0.569590
			 0.133702 -0.626642 -0.767752
			 0.160075 -0.589263 -0.791925
			 0.232241 -0.545071 -0.805582
			 0.145436 -0.568880 -0.809459
			 0.763499 -0.620050 -0.180576
			 0.699993 -0.581289 -0.414866
			 0.453875 -0.514721 -0.727365
			 0.806842 -0.586853 -0.067886
			 0.799758 -0.592792  0.094784
			-0.040051 -0.761189  0.647292
			-0.057806 -0.782905  0.619451
			 0.065824 -0.710232  0.700883
			 0.172503 -0.669072  0.722901
			-0.016959 -0.904369 -0.426414
			-0.079106 -0.965467  0.248225
			-0.073499 -0.811387  0.579869
			 0.323174 -0.557780  0.764487
			 0.653001 -0.376515  0.657135
			 0.581402 -0.366843  0.726221
			 0.467071 -0.425108  0.775324
			 0.542587 -0.306499  0.782085
			 0.645054 -0.314388  0.696466
			 0.656015 -0.377918  0.653317
			 0.773451 -0.543069  0.326879
			 0.689515 -0.479621  0.542709
			 0.814625 -0.568842  0.113159
			 0.026237 -0.710284 -0.703426
			 0.114044 -0.633749 -0.765086
			 0.112092 -0.592549 -0.797698
			 0.160735 -0.494619 -0.854117
			 0.245860 -0.470606 -0.847397
			 0.127619 -0.572186 -0.810134
			 0.149400 -0.492817 -0.857211
			 0.764528 -0.602289 -0.229662
			 0.631024 -0.522228 -0.573660
			 0.793780 -0.517570 -0.319430
			 0.500609 -0.438811 -0.746214
			 0.331046 -0.406948 -0.851353
			 0.850293 -0.526266  0.006809
			 0.869831 -0.471051 -0.146649
			-0.026712 -0.736184  0.676254
			-0.115203 -0.728156  0.675661
			 0.196096 -0.627362  0.753634
			 0.108050 -0.695852  0.710011
			 0.019463 -0.712890 -0.701006
			-0.079741 -0.814646 -0.574450
			-0.073086 -0.759886 -0.645935
			-0.032321 -0.810486 -0.584865
			-0.012038 -0.795901 -0.605307
			-0.031101 -0.734732 -0.677644
			-0.148450 -0.960713 -0.234507
			-0.199172 -0.849002  0.489414
			-0.365633 -0.922426  0.124270
			-0.247942 -0.890131  0.382350
			-0.180527 -0.887581  0.423804
			-0.317787 -0.947829 -0.025143
			-0.290752 -0.941992 -0.167673
			-0.299996 -0.761223  0.574928
			-0.190119 -0.717673  0.669925
			 0.328878 -0.575713  0.748595
			 0.607284 -0.300866  0.735313
			 0.530274 -0.299939  0.792998
			 0.464467 -0.441154  0.767889
			 0.547930 -0.203822  0.811313
			 0.586169 -0.215481  0.781008
			 0.617020 -0.254216  0.744755
			 0.653094 -0.317578  0.687468
			 0.775478 -0.416607  0.474417
			 0.874893 -0.450363  0.178145
			 0.885153 -0.462865  0.047552
			 0.041565 -0.654982 -0.754501
			 0.110213 -0.616018 -0.779984
			 0.203087 -0.430004 -0.879689
			 0.085910 -0.580636 -0.809618
			 0.105511 -0.529669 -0.841616
			 0.134855 -0.387749 -0.911847
			 0.146769 -0.402269 -0.903680
			 0.185217 -0.412330 -0.892008
			 0.117602 -0.459807 -0.880197
			 0.758309 -0.394579 -0.518917
			 0.520704 -0.380279 -0.764366
			 0.884413 -0.342758 -0.316749
			 0.397866 -0.317585 -0.860722
			 0.277282 -0.339937 -0.898642
			 0.909593 -0.415500 -0.000522
			 0.906789 -0.397777 -0.139670
			-0.049982 -0.735773  0.675382
			-0.177616 -0.653805  0.735522
			-0.265959 -0.699529  0.663269
			-0.036855 -0.706469  0.706783
			-0.116898 -0.675866  0.727695
			-0.182314 -0.676313  0.713696
			 0.161459 -0.646782  0.745389
			-0.084910 -0.779417 -0.620725
			-0.173134 -0.842166 -0.510667
			-0.088790 -0.803574 -0.588545
			-0.039052 -0.812195 -0.582078
			 0.015615 -0.729998 -0.683271
			-0.166617 -0.890284 -0.423832
			-0.246837 -0.916254 -0.315515
			-0.276906 -0.874719  0.397731
			-0.385400 -0.830305  0.402568
			-0.364533 -0.748460  0.554006
			-0.393506 -0.784281  0.479643
			-0.393539 -0.762546  0.513469
			-0.374796 -0.926439  0.035200
			-0.446723 -0.891929  0.070006
			-0.441011 -0.875620  0.196972
			-0.347533 -0.864707  0.362634
			-0.368402 -0.863848  0.343579
			-0.378362 -0.915513 -0.136668
			-0.323323 -0.945808 -0.030165
			-0.343893 -0.899568 -0.269287
			-0.431483 -0.706551  0.560899
			-0.391811 -0.672864  0.627486
			 0.341824 -0.512158  0.787940
			 0.519561 -0.147809  0.841552
			 0.419517 -0.305796  0.854689
			 0.529012 -0.083387  0.844508
			 0.555693 -0.152603  0.817262
			 0.599146 -0.136281  0.788956
			 0.577978 -0.121717  0.806924
			 0.555465 -0.075449  0.828110
			 0.600312 -0.177128  0.779905
			 0.790236 -0.262847  0.553569
			 0.695569 -0.171838  0.697607
			 0.892422 -0.342868  0.293299
			 0.945435 -0.316048  0.079164
			 0.054851 -0.645547 -0.761748
			 0.209531 -0.331599 -0.919858
			 0.020699 -0.573839 -0.818707
			 0.054560 -0.505278 -0.861230
			 0.108162 -0.376835 -0.919944
			 0.111270 -0.296490 -0.948532
			 0.128632 -0.281127 -0.951011
			 0.146634 -0.314982 -0.937702
			 0.166288 -0.315279 -0.934316
			 0.068738 -0.399169 -0.914297
			 0.877136 -0.265694 -0.400049
			 0.671874 -0.228676 -0.704481
			 0.824240 -0.250659 -0.507739
			 0.488402 -0.214876 -0.845749
			 0.916756 -0.260280 -0.303008
			 0.397160 -0.245743 -0.884236
			 0.314110 -0.259185 -0.913323
			 0.214460 -0.236363 -0.947702
			 0.956121 -0.257711 -0.139349
			-0.299130 -0.667270  0.682109
			-0.294839 -0.596345  0.746621
			-0.242793 -0.617431  0.748218
			-0.318583 -0.565099  0.761031
			-0.415277 -0.638731  0.647740
			 0.009295 -0.624767  0.780756
			-0.145965 -0.613378  0.776184
			 0.225974 -0.467566  0.854587
			-0.085095 -0.841730 -0.533150
			-0.053226 -0.743352 -0.666780
			 0.012828 -0.721898 -0.691880
			-0.253115 -0.902333 -0.348896
			-0.238358 -0.836295 -0.493758
			-0.189317 -0.817338 -0.544168
			-0.141545 -0.835108 -0.531563
			-0.457758 -0.856551  0.238282
			-0.574130 -0.785444  0.231199
			-0.504661 -0.682599  0.528561
			-0.521015 -0.741592  0.422594
			-0.369565 -0.929205  0.000260
			-0.345258 -0.914333 -0.211643
			-0.510805 -0.626855  0.588329
			 0.453714 -0.146425  0.879036
			 0.510143 -0.021818  0.859813
			 0.410129 -0.283200  0.866944
			 0.528042 -0.003026  0.849213
			 0.570933 -0.031178  0.820404
			 0.577061 -0.055539  0.814810
			 0.544427  0.019652  0.838578
			 0.591774 -0.078974  0.802226
			 0.638007 -0.100427  0.763454
			 0.925370 -0.209552  0.315877
			 0.828262 -0.089771  0.553104
			 0.763508 -0.011082  0.645703
			 0.989648 -0.082978  0.117095
			 0.986203 -0.157320 -0.051515
			-0.029013 -0.666944 -0.744543
			-0.039739 -0.611229 -0.790455
			 0.153618 -0.212653 -0.964977
			-0.097667 -0.557949 -0.824108
			-0.029744 -0.514539 -0.856951
			 0.000272 -0.414272 -0.910153
			 0.074156 -0.279164 -0.957376
			 0.084082 -0.172498 -0.981415
			 0.129743 -0.200936 -0.970974
			 0.012626 -0.267961 -0.963347
			 0.837080 -0.186658 -0.514252
			 0.898793 -0.186321 -0.396807
			 0.562212 -0.085972 -0.822512
			 0.706233 -0.065560 -0.704937
			 0.492625 -0.095427 -0.864994
			 0.939075 -0.159343 -0.304546
			 0.422267 -0.164258 -0.891465
			 0.325900 -0.133214 -0.935972
			 0.138346 -0.146791 -0.979445
			 0.203257 -0.109960 -0.972931
			 0.970328 -0.090398 -0.224259
			-0.403100 -0.579840  0.708023
			-0.434958 -0.517998  0.736539
			-0.215960 -0.552611  0.804974
			-0.260116 -0.549546  0.793939
			-0.368676 -0.511109  0.776431
			-0.451595 -0.481285  0.751284
			-0.520629 -0.582844  0.623890
			-0.479395 -0.565345  0.671241
			 0.156588 -0.534721  0.830394
			-0.157612 -0.601880  0.782878
			-0.133846 -0.758586 -0.637677
			-0.130431 -0.677344 -0.724012
			-0.376080 -0.813113 -0.444310
			-0.249507 -0.751451 -0.610792
			-0.522842 -0.847604  0.090571
			-0.657539 -0.752435 -0.038513
			-0.618527 -0.785664 -0.012486
			-0.662779 -0.729044  0.170938
			-0.628890 -0.683099  0.371312
			-0.610668 -0.613821  0.500308
			-0.700293 -0.613784  0.364497
			-0.510725 -0.859250 -0.029152
			-0.537419 -0.829542 -0.151791
			-0.525472 -0.816269 -0.239966
			-0.594712 -0.582048  0.554561
			-0.681304 -0.567247  0.462662
			 0.514699 -0.116596  0.849406
			 0.442474 -0.002362  0.896778
			 0.481518  0.015474  0.876300
			 0.531439  0.036833  0.846296
			 0.431696 -0.199858  0.879600
			 0.551130  0.029409  0.833901
			 0.588724 -0.003217  0.808327
			 0.661531 -0.003387  0.749911
			 0.928500 -0.054606  0.367295
			 0.883826  0.047140  0.465436
			 0.774602  0.079678  0.627409
			 0.858163  0.062999  0.509497
			 0.992830 -0.013332 -0.118792
			 0.999239  0.029070  0.025993
			 0.960037  0.016530  0.279386
			 0.952295  0.050138  0.301032
			-0.121120 -0.602754 -0.788681
			 0.100599 -0.079751 -0.991726
			-0.219877 -0.588003 -0.778400
			-0.222006 -0.540230 -0.811705
			-0.125938 -0.520293 -0.844651
			-0.094535 -0.441706 -0.892165
			-0.084727 -0.258454 -0.962301
			 0.006648 -0.121150 -0.992612
			 0.055386 -0.056003 -0.996893
			-0.025739  0.008051 -0.999636
			-0.109402 -0.085338 -0.990328
			 0.851293 -0.122552 -0.510178
			 0.922933 -0.094758 -0.373117
			 0.568293  0.003517 -0.822819
			 0.800445  0.052645 -0.597090
			 0.656871  0.094738 -0.748028
			 0.441745 -0.044696 -0.896026
			 0.502408 -0.009192 -0.864582
			 0.356524 -0.031999 -0.933738
			 0.108885 -0.091799 -0.989807
			 0.186473 -0.055539 -0.980889
			 0.967477  0.016068 -0.252449
			-0.538720 -0.468517  0.700194
			-0.530208 -0.512823  0.675198
			-0.217066 -0.459974  0.860991
			-0.201538 -0.439068  0.875558
			-0.274724 -0.476723  0.835022
			-0.358694 -0.435744  0.825509
			-0.469018 -0.433156  0.769674
			-0.542173 -0.389459  0.744560
			-0.536485 -0.411157  0.736976
			-0.667492 -0.530542  0.522474
			-0.606383 -0.528957  0.593720
			-0.002538 -0.459108  0.888377
			-0.234994 -0.667561 -0.706499
			-0.361757 -0.728053 -0.582298
			-0.512808 -0.746980 -0.423142
			-0.474575 -0.676841 -0.562730
			-0.332927 -0.649709 -0.683402
			-0.754609 -0.653621 -0.057832
			-0.729232 -0.680611  0.070640
			-0.683803 -0.693135 -0.227987
			-0.738954 -0.648555  0.182550
			-0.819845 -0.508756  0.262718
			-0.807584 -0.566767  0.163045
			-0.626727 -0.670725 -0.396663
			-0.788199 -0.481393  0.383410
			 0.054840 -0.145449  0.987845
			 0.309587 -0.003867  0.950863
			 0.381883 -0.024406  0.923888
			 0.498093 -0.032424  0.866517
			 0.552163 -0.012892  0.833637
			 0.567814  0.006117  0.823134
			 0.559236  0.065067  0.826451
			 0.576983  0.056396  0.814807
			 0.670605  0.065654  0.738904
			 0.767839  0.107320  0.631590
			 0.871780  0.112356  0.476840
			 0.977694  0.076046 -0.195786
			 0.984741  0.073797  0.157605
			 0.016304  0.023436 -0.999592
			 0.009361  0.040053 -0.999154
			 0.051245 -0.021644 -0.998452
			-0.338901 -0.575291 -0.744437
			-0.322668 -0.532266 -0.782674
			-0.330924 -0.504593 -0.797418
			-0.235253 -0.507911 -0.828663
			-0.270104 -0.430110 -0.861423
			-0.198262 -0.278055 -0.939882
			-0.245941 -0.070432 -0.966723
			-0.137562  0.062683 -0.988508
			-0.083540  0.115395 -0.989800
			-0.158201  0.174815 -0.971809
			-0.254462  0.078846 -0.963863
			 0.901855  0.124412 -0.413738
			 0.604758  0.060329 -0.794121
			 0.760270  0.194811 -0.619708
			 0.701358  0.129373 -0.700970
			 0.438887 -0.026671 -0.898146
			 0.555052  0.011474 -0.831737
			 0.271638 -0.032168 -0.961862
			 0.113274 -0.046790 -0.992461
			 0.926926  0.153404 -0.342456
			-0.667001 -0.403844  0.626115
			-0.639895 -0.449751  0.623104
			-0.644172 -0.373628  0.667417
			-0.654323 -0.484795  0.580376
			-0.159515 -0.318586  0.934376
			-0.202815 -0.377147  0.903674
			-0.097890 -0.283362  0.954004
			-0.266365 -0.351224  0.897603
			-0.467127 -0.377493  0.799557
			-0.579696 -0.339722  0.740636
			-0.639570 -0.298647  0.708351
			-0.762279 -0.453856  0.461459
			-0.602116 -0.588227 -0.539857
			-0.446829 -0.582609 -0.678904
			-0.816524 -0.577292  0.004697
			-0.782180 -0.582912 -0.220018
			-0.866834 -0.442979  0.228842
			-0.871427 -0.479246  0.104588
			-0.907285 -0.405325  0.112004
			-0.701226 -0.597601 -0.388786
			-0.857001 -0.400384  0.324409
			 0.025915 -0.120614  0.992361
			 0.202380 -0.057722  0.977604
			 0.271347 -0.085566  0.958671
			 0.437618 -0.139038  0.888346
			 0.574405 -0.096304  0.812886
			 0.587199 -0.060532  0.807176
			 0.628094  0.066118  0.775324
			 0.610591 -0.050220  0.790352
			 0.618415  0.098477  0.779657
			 0.631472  0.070659  0.772173
			 0.583110  0.050089  0.810848
			 0.877878  0.097734  0.468805
			 0.730094  0.124087  0.671986
			 0.958865  0.100775 -0.265373
			 0.977916  0.205061  0.040374
			 0.962422  0.128367 -0.239302
			-0.078428  0.141922 -0.986766
			-0.098924  0.126747 -0.986990
			-0.067148  0.073335 -0.995044
			 0.042347 -0.011623 -0.999035
			-0.417894 -0.510629 -0.751414
			-0.408424 -0.469262 -0.782932
			-0.352246 -0.475332 -0.806215
			-0.377078 -0.434813 -0.817771
			-0.387243 -0.304906 -0.870100
			-0.320629 -0.243785 -0.915296
			-0.401502 -0.091493 -0.911277
			-0.377159  0.119736 -0.918376
			-0.291938  0.229636 -0.928461
			-0.244579  0.286759 -0.926256
			-0.159976  0.195860 -0.967495
			 0.842638  0.206575 -0.497280
			 0.681654  0.082169 -0.727046
			 0.768021  0.160440 -0.620002
			 0.427329 -0.027773 -0.903670
			 0.611540  0.017696 -0.791016
			 0.201594 -0.050543 -0.978164
			 0.894320  0.181881 -0.408793
			-0.735806 -0.340049  0.585625
			-0.763611 -0.342399  0.547413
			-0.781488 -0.385800  0.490341
			-0.742262 -0.276999  0.610179
			-0.071866 -0.239042  0.968346
			 0.043862 -0.130384  0.990493
			-0.129375 -0.205067  0.970159
			-0.390729 -0.296871  0.871320
			-0.583830 -0.298651  0.754950
			-0.679309 -0.262683  0.685228
			-0.752522 -0.200398  0.627336
			-0.851661 -0.351457  0.388781
			-0.685348 -0.536463 -0.492449
			-0.543788 -0.529345 -0.651220
			-0.753007 -0.536111 -0.381531
			-0.866250 -0.496538 -0.055324
			-0.836729 -0.509952 -0.199582
			-0.910678 -0.364190  0.195017
			-0.903596 -0.428378  0.002569
			-0.926064 -0.377351 -0.003384
			-0.943889 -0.320335  0.080366
			-0.908188 -0.313658  0.277153
			 0.150674 -0.092260  0.984269
			 0.072082 -0.112983  0.990979
			 0.176581 -0.199797  0.963795
			 0.085563 -0.113713  0.989822
			 0.572945 -0.185431  0.798342
			 0.383599 -0.133174  0.913847
			 0.207469 -0.263542  0.942073
			 0.618235 -0.131401  0.774932
			 0.706618  0.089830  0.701870
			 0.694987  0.076150  0.714978
			 0.685600  0.139024  0.714580
			 0.745336  0.141298  0.651543
			 0.717819  0.181762  0.672085
			 0.683688 -0.050156  0.728048
			 0.938233  0.195999  0.285136
			 0.856437  0.275153  0.436813
			 0.751090  0.181766  0.634685
			 0.790961  0.230109  0.566948
			 0.731619  0.165052  0.661431
			 0.911132  0.214681 -0.351783
			 0.955727  0.291694 -0.038730
			 0.914226  0.265721 -0.305914
			 0.943959  0.213510  0.251704
			-0.222531  0.244717 -0.943713
			-0.159172  0.154527 -0.975082
			-0.210269  0.163622 -0.963854
			-0.138685  0.173117 -0.975088
			-0.073768  0.111544 -0.991018
			 0.001221  0.040929 -0.999161
			 0.109629 -0.013361 -0.993883
			-0.496566 -0.472627 -0.728042
			-0.415731 -0.414594 -0.809493
			-0.482163 -0.393575 -0.782699
			-0.450239 -0.285321 -0.846095
			-0.470198  0.078996 -0.879018
			-0.496100 -0.091275 -0.863455
			-0.378737  0.259008 -0.888523
			-0.469436  0.251012 -0.846536
			-0.393899  0.338903 -0.854394
			-0.322263  0.346988 -0.880764
			-0.392778  0.387499 -0.834009
			-0.314408  0.343045 -0.885137
			 0.815212  0.202900 -0.542458
			 0.858383  0.232561 -0.457268
			 0.733065  0.140996 -0.665384
			 0.791598  0.195547 -0.578907
			 0.302144 -0.022933 -0.952986
			 0.496938 -0.002407 -0.867783
			 0.614287  0.086131 -0.784368
			-0.771205 -0.283561  0.569944
			-0.813539 -0.254556  0.522835
			-0.872104 -0.230855  0.431441
			-0.841056 -0.302533  0.448439
			-0.898929 -0.263805  0.349763
			-0.812562 -0.203902  0.546046
			-0.010592 -0.104213  0.994499
			-0.271712 -0.151164  0.950433
			-0.490820 -0.213169  0.844781
			-0.611128 -0.193573  0.767498
			-0.681214 -0.242353  0.690806
			-0.767555 -0.176262  0.616272
			-0.834439 -0.122515  0.537310
			-0.843119 -0.157940  0.514009
			-0.727602 -0.529254 -0.436445
			-0.645775 -0.502449 -0.574908
			-0.825877 -0.489844 -0.279250
			-0.606725 -0.478505 -0.634758
			-0.888352 -0.445351 -0.111772
			-0.939711 -0.298425  0.166993
			-0.907309 -0.411312 -0.087249
			-0.943222 -0.331933 -0.012373
			-0.967408 -0.241271  0.076881
			-0.945003 -0.214057  0.247283
			-0.953318 -0.236846  0.187320
			-0.201206 -0.247584  0.947744
			-0.096956 -0.119342  0.988108
			-0.166927 -0.091016  0.981759
			 0.645308 -0.099792  0.757377
			 0.576493 -0.132394  0.806305
			 0.464753 -0.057421  0.883577
			-0.014770 -0.086902  0.996107
			-0.030670  0.113971  0.993011
			 0.212297  0.117438  0.970123
			 0.726230  0.187183  0.661478
			 0.753510  0.233438  0.614597
			 0.752445  0.156623  0.639762
			 0.745181  0.108787  0.657930
			 0.826714  0.233925  0.511686
			 0.786493  0.244534  0.567126
			 0.689007 -0.026605  0.724266
			 0.741022  0.063924  0.668431
			 0.852025  0.315676  0.417616
			 0.842990  0.255665  0.473290
			 0.913258  0.213212  0.347131
			 0.960620  0.188866  0.203810
			 0.787983  0.308245  0.532981
			 0.901860  0.267045  0.339611
			 0.949671  0.222326 -0.220670
			 0.949088  0.291104 -0.120375
			 0.947537  0.292616  0.128645
			 0.944572  0.214197 -0.248803
			 0.910329  0.249505 -0.330224
			 0.865608  0.251765 -0.432825
			-0.349556  0.318658 -0.881061
			-0.257885  0.204100 -0.944372
			-0.340559  0.232528 -0.911016
			-0.201242  0.233873 -0.951212
			-0.253287  0.251422 -0.934148
			-0.167979  0.271814 -0.947576
			-0.138020  0.247786 -0.958933
			-0.033382  0.193481 -0.980536
			 0.032527  0.111100 -0.993277
			 0.101962  0.020058 -0.994586
			-0.576494 -0.403072 -0.710765
			-0.580349 -0.275679 -0.766288
			-0.513574 -0.242328 -0.823115
			-0.536561  0.098748 -0.838064
			-0.591461 -0.086363 -0.801695
			-0.552452  0.250182 -0.795114
			-0.537216  0.353533 -0.765777
			-0.466799  0.365390 -0.805350
			-0.488596  0.410308 -0.770014
			-0.450654  0.326903 -0.830690
			-0.495021  0.376737 -0.782958
			 0.827631  0.232013 -0.511074
			 0.733553  0.180185 -0.655312
			 0.776563  0.214549 -0.592384
			 0.204617  0.018043 -0.978676
			 0.451894  0.036476 -0.891326
			 0.641756  0.158858 -0.750276
			 0.548263  0.135331 -0.825283
			-0.913785 -0.139625  0.381447
			-0.874725 -0.165057  0.455645
			-0.928839 -0.183013  0.322125
			-0.966833 -0.122057  0.224355
			-0.884922 -0.151541  0.440396
			-0.471014 -0.107844  0.875509
			-0.717487 -0.162413  0.677373
			-0.630862 -0.114689  0.767372
			-0.797325 -0.076561  0.598674
			-0.835452 -0.060148  0.546262
			-0.907458 -0.006613  0.420090
			-0.899970 -0.106476  0.422749
			-0.732437 -0.484418 -0.478409
			-0.904329 -0.385562 -0.183114
			-0.827809 -0.406191 -0.386964
			-0.710358 -0.388281 -0.587052
			-0.932508 -0.323619 -0.160308
			-0.971774 -0.234497 -0.025828
			-0.992561 -0.113942  0.042894
			-0.993583 -0.104600 -0.043022
			-0.979055 -0.140853  0.147006
			-0.424418 -0.163870  0.890514
			-0.624223 -0.128047  0.770681
			-0.520935 -0.069865  0.850733
			-0.361813 -0.075530  0.929186
			-0.367260 -0.016698  0.929968
			 0.628052  0.071879  0.774845
			 0.576725  0.012577  0.816841
			 0.676453  0.041387  0.735322
			 0.490869  0.030614  0.870695
			-0.453370  0.164226  0.876063
			-0.335689  0.139495  0.931587
			-0.180049  0.112812  0.977167
			-0.217492  0.095527  0.971376
			-0.126499  0.155556  0.979694
			-0.109611  0.198687  0.973914
			 0.139918  0.133519  0.981120
			 0.770158  0.368547  0.520605
			 0.779141  0.298839  0.551030
			 0.783485  0.271894  0.558771
			 0.777882  0.162916  0.606925
			 0.911241  0.294239  0.288206
			 0.902805  0.302866  0.305312
			 0.843105  0.277148  0.460828
			 0.831387  0.332346  0.445356
			 0.766540  0.133140  0.628243
			 0.702069  0.113403  0.703021
			 0.943680  0.183190 -0.275517
			 0.947789  0.249792 -0.198241
			 0.950507  0.307865  0.041899
			 0.903976  0.265775 -0.334948
			 0.865094  0.241255 -0.439782
			-0.410878  0.226967 -0.882987
			-0.300006  0.224366 -0.927176
			-0.333972  0.226235 -0.915030
			-0.236446  0.308891 -0.921238
			-0.178820  0.330328 -0.926772
			-0.268552  0.253630 -0.929275
			-0.015742  0.269289 -0.962931
			-0.104330  0.363837 -0.925601
			 0.062561  0.173432 -0.982857
			 0.079699  0.158948 -0.984065
			-0.662643 -0.248179 -0.706619
			-0.617409  0.112690 -0.778529
			-0.702127 -0.056951 -0.709770
			-0.636306  0.265751 -0.724218
			-0.627291  0.361547 -0.689775
			-0.549967  0.398816 -0.733813
			-0.495420  0.255445 -0.830245
			-0.461859  0.242156 -0.853256
			-0.560882  0.295532 -0.773352
			 0.776026  0.258370 -0.575351
			 0.821881  0.246967 -0.513340
			 0.733087  0.243324 -0.635119
			 0.646053  0.245128 -0.722861
			 0.354772  0.175137 -0.918403
			 0.481364  0.226310 -0.846801
			-0.953107 -0.104701  0.283944
			-0.938486 -0.089168  0.333606
			-0.968168 -0.031008  0.248372
			-0.992280 -0.037026  0.118365
			-0.981179 -0.030163  0.190728
			-0.993738  0.012867  0.110988
			-0.588486 -0.031615  0.807889
			-0.721697 -0.046225  0.690664
			-0.800042  0.041952  0.598475
			-0.838598  0.033166  0.543740
			-0.880961  0.062996  0.468977
			-0.962927  0.051126  0.264874
			-0.920446  0.105981  0.376227
			-0.952188 -0.030385  0.303999
			-0.875298 -0.263732 -0.405338
			-0.769573 -0.220058 -0.599443
			-0.940259 -0.206646 -0.270576
			-0.964501 -0.215902 -0.152069
			-0.975868 -0.064053 -0.208755
			-0.995966  0.028210 -0.085185
			-0.999511 -0.016038  0.026837
			-0.979724  0.054188 -0.192886
			-0.627826 -0.017485  0.778158
			-0.620011  0.061323  0.782193
			-0.718274  0.017548  0.695539
			-0.819731  0.148029  0.553289
			-0.752260  0.051680  0.656837
			-0.555533  0.037097  0.830666
			 0.629012  0.098272  0.771159
			 0.684182  0.111461  0.720744
			 0.260558  0.020103  0.965249
			 0.372359 -0.006855  0.928063
			 0.627113  0.035748  0.778108
			 0.501075  0.028402  0.864938
			 0.372649 -0.026169  0.927603
			-0.609705  0.227258  0.759351
			-0.540249  0.228529  0.809880
			-0.536991  0.102074  0.837390
			-0.449817  0.125114  0.884314
			-0.291769  0.148208  0.944937
			-0.041027  0.128232  0.990895
			-0.215375  0.091326  0.972252
			-0.278212  0.112351  0.953926
			-0.107087  0.010823  0.994191
			 0.008681  0.046717  0.998870
			 0.803983  0.414227  0.426647
			 0.789778  0.451249  0.415481
			 0.853120  0.321242  0.411085
			 0.822881  0.220933  0.523503
			 0.944361  0.322941  0.062387
			 0.902837  0.347870  0.252729
			 0.860723  0.430814  0.271210
			 0.837266  0.141806  0.528089
			 0.792427  0.094557  0.602593
			 0.711025  0.096478  0.696517
			 0.944509  0.296784 -0.140789
			 0.928684  0.323962 -0.180538
			 0.884997  0.302700 -0.353769
			 0.837389  0.282309 -0.468061
			-0.456567  0.152661 -0.876494
			-0.347804  0.145454 -0.926216
			-0.172001  0.401264 -0.899668
			-0.190728  0.361068 -0.912827
			-0.097336  0.459614 -0.882769
			-0.157914  0.324426 -0.932637
			-0.246203  0.221602 -0.943545
			 0.195601  0.301406 -0.933217
			 0.027927  0.204073 -0.978557
			-0.006490  0.394766 -0.918759
			 0.096067  0.421260 -0.901838
			-0.020757  0.447789 -0.893898
			-0.016552  0.486148 -0.873720
			 0.228540  0.218021 -0.948808
			 0.160001  0.158521 -0.974305
			-0.718144  0.125784 -0.684433
			-0.824168 -0.042963 -0.564713
			-0.759133  0.259479 -0.596982
			-0.742745  0.335797 -0.579284
			-0.662786  0.353922 -0.659889
			-0.520549  0.158374 -0.839015
			-0.659222  0.180638 -0.729929
			-0.590592  0.173242 -0.788155
			 0.684968  0.304059 -0.662093
			 0.668031  0.376212 -0.642027
			 0.767921  0.311072 -0.559939
			 0.677911  0.299242 -0.671485
			 0.433188  0.287164 -0.854333
			 0.566420  0.338688 -0.751305
			 0.577229  0.394336 -0.715056
			 0.328789  0.298618 -0.895949
			-0.982112  0.006676  0.188179
			-0.991995  0.058143  0.112094
			-0.997162  0.074643 -0.009810
			-0.994501  0.099922  0.031371
			-0.696549  0.046237  0.716018
			-0.796228  0.092049  0.597953
			-0.861614  0.112664  0.494902
			-0.959889  0.118831  0.253952
			-0.988362  0.054972  0.141843
			-0.930386  0.150898  0.334084
			-0.895011  0.139586  0.423640
			-0.915307 -0.121590 -0.383965
			-0.932370 -0.036988 -0.359609
			-0.930139  0.042628 -0.364725
			-0.949280  0.077886 -0.304631
			-0.988549  0.103421 -0.109890
			-0.949318  0.167471 -0.265985
			-0.662639  0.135075  0.736658
			-0.775669  0.183360  0.603918
			-0.917589  0.167748  0.360404
			-0.901862  0.039078  0.430252
			-0.836118  0.364611  0.409835
			-0.840252  0.314092  0.441953
			-0.818449  0.273171  0.505489
			-0.850878  0.104591  0.514846
			 0.075302 -0.022635  0.996904
			 0.241607 -0.002722  0.970371
			 0.703281 -0.046559  0.709386
			 0.599475 -0.069046  0.797410
			 0.543937  0.004260  0.839115
			 0.483726  0.019060  0.875012
			 0.715619  0.038963  0.697403
			 0.213664 -0.080905  0.973551
			 0.277537 -0.098459  0.955656
			-0.420178  0.097667  0.902170
			-0.471262 -0.003361  0.881987
			-0.435162 -0.133631  0.890380
			-0.129556 -0.115424  0.984831
			 0.816173  0.529685  0.230857
			 0.770635  0.604770  0.200935
			 0.861194  0.429369  0.272007
			 0.900694  0.199539  0.385920
			 0.901001  0.283678  0.328214
			 0.925131  0.378717  0.026583
			 0.880419  0.445091  0.163573
			 0.835035  0.549582 -0.026006
			 0.858676  0.083824  0.505617
			 0.793582  0.063239  0.605169
			 0.905719  0.384675 -0.178039
			 0.840409  0.406397 -0.358545
			 0.813028  0.349766 -0.465456
			-0.473155  0.055518 -0.879228
			-0.408672  0.069924 -0.909999
			-0.338267  0.158120 -0.927671
			-0.232902  0.217552 -0.947855
			-0.123881  0.461157 -0.878628
			-0.083093  0.450437 -0.888933
			-0.064413  0.503579 -0.861545
			 0.017709  0.521866 -0.852844
			-0.188884  0.292448 -0.937442
			-0.038394  0.427950 -0.902987
			-0.083375  0.396554 -0.914218
			 0.343113  0.438652 -0.830577
			 0.212093  0.467901 -0.857954
			 0.118052  0.500327 -0.857751
			 0.187433  0.506999 -0.841321
			-0.808716  0.134697 -0.572569
			-0.876162 -0.019523 -0.481621
			-0.885057  0.120414 -0.449638
			-0.854220  0.248818 -0.456507
			-0.807678  0.305267 -0.504449
			-0.815822  0.239325 -0.526458
			-0.583171  0.088550 -0.807509
			-0.692635  0.133153 -0.708891
			-0.656497  0.183154 -0.731756
			-0.753589  0.154383 -0.638959
			 0.595004  0.412799 -0.689614
			 0.484869  0.485414 -0.727514
			 0.632908  0.428744 -0.644675
			 0.730246  0.389205 -0.561481
			 0.452670  0.426423 -0.783105
			 0.467420  0.482811 -0.740548
			 0.337653  0.500127 -0.797411
			 0.488632  0.448842 -0.748184
			-0.994923  0.039169  0.092702
			-0.997661  0.064636  0.022234
			-0.993607  0.109791 -0.026275
			-0.982706  0.157665 -0.097107
			-0.963545  0.192909 -0.185383
			-0.980278  0.145685  0.133530
			-0.957541  0.177878  0.226880
			-0.997326  0.069832  0.021529
			-0.930086  0.169089  0.326112
			-0.894191  0.170308  0.414027
			-0.903005  0.260668 -0.341518
			-0.644893  0.034240  0.763505
			-0.799958  0.019828  0.599729
			-0.866801  0.105697  0.487323
			-0.826022  0.200358  0.526824
			-0.834007  0.259197  0.487082
			-0.927734  0.179224  0.327397
			-0.892867  0.228143  0.388253
			-0.880508  0.260780  0.395853
			-0.911672  0.179939  0.369426
			-0.863384  0.266428  0.428467
			 0.118755 -0.070202  0.990439
			 0.653754 -0.133157  0.744899
			 0.742190 -0.093806  0.663592
			 0.779021 -0.006015  0.626969
			 0.502277 -0.148653  0.851833
			 0.442248 -0.006522  0.896869
			 0.478713  0.035401  0.877257
			 0.399932  0.006355  0.916523
			-0.017935 -0.188219  0.981963
			 0.159901 -0.166432  0.973002
			 0.061958 -0.217118  0.974177
			 0.254667 -0.059882  0.965173
			-0.661887 -0.139968  0.736420
			-0.397738 -0.316888  0.861038
			 0.745767  0.653806 -0.127940
			 0.690312  0.707118 -0.153146
			 0.772622  0.624883  0.112148
			 0.858389  0.498619  0.120609
			 0.935949  0.335760  0.106134
			 0.923479  0.247376  0.293243
			 0.920941  0.113222  0.372893
			 0.963113  0.151887  0.222135
			 0.906371  0.421712  0.025525
			 0.884348  0.450288 -0.123163
			 0.830333  0.498039 -0.250007
			 0.865977  0.499804 -0.016688
			 0.666082  0.659030 -0.349305
			 0.737075  0.574418 -0.356039
			 0.931178  0.072345  0.357315
			 0.872309  0.062186  0.484985
			 0.875863  0.083614  0.475261
			 0.835640  0.061132  0.545865
			 0.719481  0.472775 -0.508754
			 0.712643  0.551106 -0.434076
			-0.484621  0.042776 -0.873678
			-0.589357  0.016649 -0.807701
			-0.483134  0.095484 -0.870324
			-0.441339  0.191573 -0.876653
			-0.295992  0.275769 -0.914516
			-0.021594  0.542346 -0.839877
			 0.001518  0.465291 -0.885157
			 0.007009  0.505594 -0.862743