<?xml version="1.0"?>
<VTKFile type="PolyData" version="0.1" byte_order="LittleEndian" compressor="vtkZLibDataCompressor">
	<PolyData>
		<Piece NumberOfPoints="18028" NumberOfVerts="0" NumberOfLines="0" NumberOfStrips="0" NumberOfPolys="36035">
		<PointData Normals="Normals">
		<DataArray type="Float32" Name="Normals" NumberOfComponents="3" format="ascii">
			 0.560530 -0.376619  0.737539
			 0.219763 -0.400693  0.889466
			 0.445753 -0.832258  0.329623
			 0.812628 -0.516818  0.269323
			 0.495662 -0.037944  0.867686
			 0.168574 -0.901938  0.397605
			 0.229530 -0.363654  0.902813
			 0.393721 -0.110629  0.912549
			 0.572794 -0.806318 -0.147507
			 0.702962 -0.354834  0.616390
			 0.459522 -0.127041  0.879034
			 0.786084 -0.450188 -0.423559
			 0.894031 -0.415044 -0.168663
			 0.029534 -0.683862  0.729014
			 0.329959 -0.935612 -0.125530
			-0.274012 -0.808930  0.520144
			-0.073359 -0.971269  0.226396
			-0.142477 -0.451702  0.880719
			 0.096524 -0.455955  0.884753
			 0.552655 -0.393376  0.734730
			 0.464579 -0.652555  0.598613
			 0.353568 -0.155270  0.922432
			 0.578581 -0.673882 -0.459487
			 0.789642 -0.246237  0.561990
			 0.408342 -0.149588  0.900489
			 0.697144 -0.365817 -0.616577
			 0.826217 -0.130633 -0.547998
			 0.763949 -0.123980 -0.633254
			 0.985472 -0.121768 -0.118397
			 0.076143 -0.978075 -0.193834
			 0.308800 -0.802080 -0.511185
			-0.379756 -0.823786  0.420905
			-0.317318 -0.561286  0.764374
			-0.252507 -0.967390  0.019926
			 0.002482 -0.664925  0.746906
			-0.207042 -0.551916  0.807788
			-0.161246 -0.601200  0.782661
			 0.544477 -0.755934  0.363467
			 0.395614 -0.577414  0.714201
			 0.323485 -0.822356  0.468069
			 0.498180 -0.749739  0.435555
			 0.314566 -0.725465  0.612168
			 0.410096 -0.351015  0.841790
			 0.471179 -0.533857 -0.702130
			 0.891758 -0.247105  0.379087
			 0.613764 -0.232683 -0.754422
			 0.957653  0.056590 -0.282311
			 0.838701  0.069086 -0.540192
			 0.778170  0.042260 -0.626630
			 0.667546 -0.092824 -0.738760
			-0.041367 -0.912166 -0.407727
			 0.262846 -0.706534 -0.657056
			-0.303305 -0.952782 -0.014578
			-0.390808 -0.660340  0.641265
			-0.420021 -0.811530  0.406204
			-0.348707 -0.552812  0.756837
			-0.372794 -0.545528  0.750616
			-0.239276 -0.688685  0.684441
			 0.062977 -0.792909  0.606077
			-0.206377 -0.647897  0.733238
			-0.080460 -0.688838  0.720436
			-0.121206 -0.696374  0.707370
			-0.306010 -0.503735  0.807842
			-0.100537 -0.593060  0.798856
			-0.183298 -0.549531  0.815118
			-0.287053 -0.557853  0.778717
			 0.499140 -0.724766  0.474947
			 0.579235 -0.730652  0.361434
			 0.481699 -0.763151  0.430774
			 0.223018 -0.677319  0.701072
			 0.271454 -0.691596  0.669333
			 0.500201 -0.658918  0.561806
			 0.368937 -0.663728  0.650654
			 0.202840 -0.663702  0.719970
			 0.438276 -0.622831  0.648071
			 0.489197 -0.369996 -0.789803
			 0.795539 -0.534934  0.284540
			 0.991125 -0.026605 -0.130240
			 0.875507  0.165025 -0.454152
			 0.849040  0.132456 -0.511455
			 0.768559 -0.000981 -0.639778
			 0.557772 -0.182212 -0.809746
			 0.610129 -0.106345 -0.785133
			-0.007201 -0.878702 -0.477316
			 0.255964 -0.672984 -0.693956
			-0.385125 -0.877310  0.286366
			-0.330988 -0.939618 -0.086979
			-0.163281 -0.920226 -0.355701
			-0.401576 -0.687389  0.605172
			-0.376725 -0.409050  0.831117
			-0.419019 -0.446289  0.790727
			-0.414985 -0.428606  0.802549
			-0.395966 -0.471979  0.787684
			-0.396278 -0.514959  0.760119
			-0.381535 -0.561047  0.734614
			-0.208086 -0.723541  0.658171
			-0.234351 -0.615177  0.752753
			-0.138267 -0.638616  0.757002
			-0.108632 -0.666615  0.737444
			-0.055276 -0.646871  0.760593
			-0.052612 -0.741610  0.668765
			-0.362259 -0.408402  0.837840
			-0.384940 -0.337890  0.858866
			-0.258836 -0.498986  0.827053
			-0.128193 -0.588165  0.798516
			 0.578140 -0.719603  0.384612
			 0.533753 -0.670227  0.515658
			 0.497153 -0.688576  0.527923
			 0.524241 -0.653572  0.545907
			 0.458285 -0.687830  0.562908
			 0.005484 -0.589675  0.807622
			 0.317246 -0.622226  0.715675
			 0.201994 -0.585116  0.785390
			 0.013431 -0.599530  0.800240
			 0.317021 -0.534229 -0.783643
			 0.421643 -0.299728 -0.855792
			 0.646616 -0.680060  0.345554
			 0.642148 -0.650943  0.404870
			 0.711986 -0.536068  0.453550
			 0.859415 -0.345339  0.377024
			 0.946684 -0.307294  0.096748
			 0.916778  0.154725 -0.368210
			 0.975584  0.140835 -0.168530
			 0.994948 -0.092379  0.039296
			 0.994779  0.084287 -0.057541
			 0.883989  0.184032 -0.429762
			 0.836991  0.130642 -0.531393
			 0.858200  0.201905 -0.471941
			 0.763697  0.124705 -0.633416
			 0.670349  0.031361 -0.741383
			 0.482574 -0.167733 -0.859644
			 0.547024 -0.023038 -0.836800
			 0.497530 -0.095490 -0.862175
			 0.023678 -0.766363 -0.641971
			-0.313830 -0.949458 -0.006358
			-0.349640 -0.763861  0.542464
			-0.331418 -0.905047  0.266557
			-0.158807 -0.903350 -0.398420
			-0.388345 -0.595047  0.703639
			-0.441019 -0.330035  0.834613
			-0.403471 -0.276175  0.872318
			-0.438499 -0.308778  0.844023
			-0.438711 -0.283743  0.852656
			-0.423965 -0.280325  0.861204
			-0.385847 -0.521038  0.761342
			-0.314364 -0.385090  0.867687
			-0.092655 -0.599845  0.794733
			-0.023876 -0.581939  0.812882
			-0.302156 -0.429108  0.851216
			-0.413285 -0.286472  0.864367
			-0.427752 -0.262651  0.864895
			-0.124831 -0.624824  0.770722
			 0.610145 -0.634786  0.474098
			 0.479912 -0.650463  0.588713
			 0.601354 -0.645832  0.470399
			 0.613476 -0.630210  0.475902
			 0.199243 -0.499719  0.842961
			 0.305372 -0.532943  0.789126
			 0.088971 -0.495588  0.863989
			-0.089675 -0.434669  0.896115
			-0.184139 -0.475105  0.860447
			 0.212760 -0.554876 -0.804267
			 0.240725 -0.442490 -0.863860
			 0.367730 -0.280380 -0.886658
			 0.623340 -0.673614  0.397105
			 0.703487 -0.542422  0.459222
			 0.779407 -0.408440  0.475080
			 0.832690 -0.367192  0.414484
			 0.891160 -0.339145  0.301353
			 0.935837 -0.280342  0.213580
			 0.972275 -0.139598  0.187602
			 0.936268  0.198944 -0.289523
			 0.961136  0.183819 -0.205981
			 0.984134  0.162915 -0.070278
			 0.997336  0.001370  0.072936
			 0.993893 -0.004723  0.110249
			 0.914828  0.224210 -0.335887
			 0.761642  0.253749 -0.596249
			 0.906467  0.198894 -0.372503
			 0.852477  0.230660 -0.469126
			 0.790998  0.299291 -0.533617
			 0.637097  0.266277 -0.723329
			 0.553173  0.197067 -0.809422
			 0.465734 -0.128038 -0.875613
			 0.491204  0.122538 -0.862382
			 0.054949 -0.695600 -0.716325
			-0.160209 -0.986269  0.040085
			-0.230226 -0.858887  0.457504
			-0.274640 -0.693332  0.666231
			-0.362504 -0.614017  0.701123
			-0.019817 -0.944293 -0.328510
			 0.093609 -0.771575 -0.629214
			-0.451962 -0.195646  0.870318
			-0.397029 -0.203716  0.894912
			-0.316484 -0.567086  0.760428
			-0.286350 -0.258149  0.922693
			-0.236926 -0.274178  0.932037
			-0.166459 -0.356227  0.919453
			-0.213490 -0.527555  0.822258
			-0.326932 -0.302297  0.895395
			-0.441274 -0.181949  0.878733
			 0.618908 -0.545188  0.565441
			 0.478442 -0.543576  0.689651
			 0.301401 -0.543871  0.783174
			 0.746094 -0.506915  0.431720
			 0.107846 -0.389713  0.914600
			 0.025982 -0.354894  0.934546
			-0.090704 -0.323437  0.941892
			-0.234256 -0.284681  0.929559
			 0.221881 -0.504824 -0.834219
			 0.315642 -0.357069 -0.879131
			 0.361878 -0.273211 -0.891291
			 0.854887 -0.294959  0.426812
			 0.954004  0.222932 -0.200444
			 0.970243  0.183639 -0.157814
			 0.991067  0.130167  0.029042
			 0.977695 -0.037075  0.206732
			 0.951111  0.198814 -0.236349
			 0.578461  0.382745 -0.720340
			 0.675141  0.381765 -0.631221
			 0.929401  0.200712 -0.309722
			 0.883709  0.246979 -0.397567
			 0.817057  0.329405 -0.473191
			 0.814712  0.280981 -0.507241
			 0.756929  0.380208 -0.531507
			 0.678480  0.448141 -0.582095
			 0.487954  0.393540 -0.779119
			 0.425118 -0.130723 -0.895648
			 0.468262  0.103396 -0.877519
			 0.438905  0.383194 -0.812727
			-0.146478 -0.917620  0.369483
			-0.106761 -0.990382  0.088009
			-0.034804 -0.981646 -0.187508
			-0.155562 -0.705777  0.691143
			-0.165266 -0.705289  0.689387
			-0.211016 -0.622373  0.753740
			 0.028194 -0.875447 -0.482490
			 0.045133 -0.697087 -0.715565
			 0.164086 -0.574191 -0.802110
			-0.453348 -0.170452  0.874884
			-0.444352 -0.188122  0.875878
			-0.428962 -0.238454  0.871281
			-0.404337 -0.266171  0.875022
			-0.359840 -0.244239  0.900479
			-0.280709 -0.187917  0.941217
			-0.183721 -0.220006  0.958042
			-0.156504 -0.407510  0.899690
			-0.168683 -0.461986  0.870698
			-0.150198 -0.528492  0.835546
			-0.072048 -0.309409  0.948196
			-0.174051 -0.604408  0.777430
			-0.372986 -0.174705  0.911241
			-0.453782 -0.149923  0.878410
			-0.424467 -0.177493  0.887876
			 0.597567 -0.452803  0.661728
			 0.367256 -0.440558  0.819165
			 0.306886 -0.446742  0.840382
			 0.200215 -0.427883  0.881380
			 0.074341 -0.325007  0.942785
			-0.112889 -0.223385  0.968171
			-0.154261 -0.217747  0.963738
			-0.271203 -0.187964  0.943991
			 0.247631 -0.398590 -0.883065
			 0.258988 -0.325635 -0.909333
			 0.302262 -0.211735 -0.929412
			 0.726626 -0.272075  0.630865
			 0.606631 -0.377363  0.699711
			 0.905926 -0.126646  0.404054
			 0.981729  0.183055 -0.051955
			 0.972199  0.200234 -0.121385
			 0.990303  0.092580  0.103576
			 0.965158  0.036197  0.259153
			 0.952427  0.184003 -0.242951
			 0.975402  0.140936 -0.169494
			 0.983450  0.141057 -0.113706
			 0.495388  0.473202 -0.728472
			 0.563322  0.491432 -0.664201
			 0.915992  0.220836 -0.334946
			 0.847707  0.329974 -0.415344
			 0.748213  0.404421 -0.525948
			 0.596633  0.483313 -0.640655
			 0.659006  0.441356 -0.609029
			 0.412177  0.489123 -0.768680
			 0.437008  0.503371 -0.745414
			 0.294671  0.009153 -0.955555
			 0.288019  0.308682 -0.906510
			 0.267527  0.511498 -0.816578
			 0.344205  0.532984 -0.772950
			-0.222753 -0.961820  0.159008
			-0.283690 -0.797645  0.532242
			-0.169169 -0.601660  0.780633
			-0.059293 -0.974598 -0.215970
			-0.027447 -0.846539 -0.531618
			-0.150170 -0.571921  0.806446
			-0.176044 -0.626781  0.759048
			-0.132465 -0.603922 -0.785959
			 0.088264 -0.491560 -0.866359
			-0.430717 -0.233035  0.871881
			-0.378845 -0.369273  0.848595
			-0.362062 -0.388182  0.847482
			-0.235216 -0.351515  0.906152
			-0.167023 -0.234563  0.957645
			-0.103080 -0.233795  0.966806
			-0.173650 -0.584966  0.792251
			-0.124719 -0.431120  0.893633
			-0.164417 -0.624231  0.763743
			-0.074351 -0.335009  0.939277
			 0.017613 -0.375653  0.926593
			 0.057397 -0.475157  0.878027
			-0.095833 -0.398676  0.912071
			-0.066534 -0.436321  0.897328
			-0.348186 -0.157360  0.924123
			-0.353974 -0.313534  0.881135
			-0.378987 -0.346945  0.857903
			 0.409817 -0.358316  0.838845
			 0.248746 -0.385193  0.888680
			 0.047928 -0.305578  0.950960
			-0.104678 -0.275229  0.955663
			-0.177781 -0.241782  0.953905
			 0.260172 -0.306279  0.915698
			-0.248692 -0.213507  0.944758
			-0.229031 -0.143362  0.962804
			-0.293765 -0.121183  0.948165
			 0.137992 -0.330833 -0.933546
			 0.124810 -0.151183 -0.980595
			 0.774811 -0.186364  0.604100
			 0.671756 -0.223738  0.706177
			 0.504922 -0.299942  0.809375
			 0.827038 -0.116497  0.549943
			 0.991181  0.107590  0.077362
			 0.938243 -0.032884  0.344410
			 0.929450  0.240692 -0.279625
			 0.894599  0.284950 -0.344232
			 0.929064  0.219373 -0.297852
			 0.945712  0.188326 -0.264880
			 0.971208  0.112859 -0.209805
			 0.977773  0.094445 -0.187191
			 0.992090  0.081847 -0.095180
			 0.993375  0.030732 -0.110728
			 0.998820  0.039611  0.028097
			 0.485933  0.518484 -0.703593
			 0.504137  0.505977 -0.699881
			 0.810680  0.357174 -0.463923
			 0.715229  0.378212 -0.587710
			 0.779608  0.339629 -0.526179
			 0.571604  0.436174 -0.694997
			 0.656976  0.372269 -0.655590
			 0.358552  0.538030 -0.762866
			 0.355095  0.514947 -0.780216
			 0.393060  0.503178 -0.769620
			 0.450954  0.500169 -0.739237
			 0.079548  0.135630 -0.987561
			 0.116724  0.449803 -0.885468
			 0.135189  0.584504 -0.800049
			 0.230528  0.560245 -0.795602
			-0.528668 -0.823827  0.204498
			-0.370059 -0.911773 -0.178119
			-0.678943 -0.723827 -0.122929
			-0.368277 -0.679635  0.634404
			-0.251944 -0.601098  0.758423
			-0.208529 -0.656432  0.724991
			-0.227452 -0.641219  0.732874
			-0.189863 -0.551560  0.812240
			-0.130852 -0.586429  0.799362
			-0.324825 -0.788101 -0.522863
			-0.292015 -0.702634 -0.648870
			-0.445752 -0.516268 -0.731282
			-0.226860 -0.465919 -0.855251
			-0.595897 -0.370275 -0.712603
			-0.072494 -0.306283 -0.949176
			-0.306561 -0.511112  0.802985
			-0.284714 -0.580802  0.762632
			-0.300684 -0.492554  0.816688
			-0.128782 -0.354606  0.926105
			-0.191496 -0.551765  0.811717
			-0.066350 -0.610991  0.788852
			-0.164807 -0.517299  0.839786
			-0.008975 -0.444860  0.895555
			 0.091254 -0.630267  0.770997
			 0.138457 -0.613550  0.777423
			 0.147773 -0.667592  0.729715
			 0.025221 -0.602145  0.797988
			-0.159771 -0.528843  0.833546
			-0.330082 -0.310311  0.891489
			-0.251732 -0.368832  0.894759
			-0.301128 -0.478263  0.824977
			-0.269906 -0.584742  0.765002
			-0.302576 -0.484430  0.820838
			 0.198992 -0.361291  0.910973
			-0.083344 -0.373102  0.924039
			 0.549841 -0.263776  0.792525
			-0.194558 -0.091245 -0.976638
			 0.754057 -0.256236  0.604765
			 0.666387 -0.237491  0.706772
			 0.978099 -0.028485  0.206180
			 0.912094 -0.157933  0.378342
			 0.826686  0.305769 -0.472330
			 0.916124  0.236548 -0.323669
			 0.869159  0.233280 -0.436054
			 0.934727  0.153298 -0.320601
			 0.973340  0.136428 -0.184384
			 0.987095  0.029418 -0.157412
			 0.987465  0.081781 -0.134998
			 0.974901  0.063344 -0.213439
			 0.981003  0.134759 -0.139547
			 0.975270  0.116195 -0.188008
			 0.997051  0.005074 -0.076573
			 0.989955 -0.005020 -0.141293
			 0.997790 -0.058795 -0.030966
			 0.993124 -0.116875 -0.006702
			 0.976561 -0.147941  0.156338
			 0.481731  0.454911 -0.748994
			 0.778468  0.265448 -0.568792
			 0.527978  0.385100 -0.756926
			 0.589829  0.355839 -0.724901
			 0.680984  0.262551 -0.683614
			 0.331762  0.505647 -0.796401
			 0.405820  0.483034 -0.775879
			-0.140685  0.124511 -0.982194
			-0.168737  0.315393 -0.933839
			 0.015585  0.557058 -0.830327
			-0.029835  0.627183 -0.778300
			 0.026608  0.576436 -0.816709
			 0.110105  0.510507 -0.852795
			 0.230024  0.493418 -0.838825
			-0.430442 -0.784945  0.445624
			-0.722544 -0.680153 -0.123787
			-0.783695 -0.524824 -0.332237
			-0.655431 -0.594852 -0.465362
			-0.789176 -0.367811 -0.491849
			-0.318764 -0.643857  0.695585
			-0.395030 -0.579697  0.712673
			-0.311018 -0.570656  0.760013
			-0.182842 -0.602711  0.776729
			-0.213945 -0.567077  0.795394
			-0.665276 -0.448250 -0.597059
			-0.435347 -0.308942 -0.845594
			-0.784702 -0.258642 -0.563336
			-0.757468 -0.238474 -0.607760
			-0.260653 -0.654972  0.709276
			-0.238910 -0.660474  0.711825
			-0.149236 -0.782779  0.604141
			-0.118967 -0.792737  0.597842
			-0.196970 -0.652562  0.731687
			-0.125047 -0.710337  0.692665
			 0.016570 -0.576808  0.816711
			-0.071641 -0.789738  0.609247
			-0.074303 -0.826310  0.558292
			-0.012117 -0.846202  0.532725
			 0.009352 -0.807817  0.589360
			 0.067337 -0.753268  0.654258
			 0.140118 -0.821290  0.553036
			 0.166009 -0.743891  0.647354
			 0.111788 -0.840406  0.530303
			 0.128432 -0.825622  0.549412
			 0.189387 -0.809308  0.556016
			 0.170048 -0.756659  0.631309
			 0.128466 -0.761632  0.635148
			-0.115452 -0.691453  0.713136
			-0.300723 -0.565967  0.767625
			-0.296147 -0.512761  0.805837
			-0.102750 -0.530066  0.841708
			-0.165403 -0.619532  0.767348
			-0.237985 -0.598607  0.764875
			-0.279695 -0.575878  0.768203
			-0.245352 -0.628338  0.738237
			-0.180064 -0.760466  0.623914
			-0.176817 -0.759329  0.626223
			-0.143160 -0.806182  0.574088
			-0.178678 -0.759819  0.625099
			-0.252631 -0.650028  0.716688
			 0.527922 -0.303088  0.793370
			 0.046678 -0.440849  0.896367
			 0.399725 -0.486692  0.776756
			-0.606255 -0.153426 -0.780331
			-0.544289 -0.015883 -0.838747
			-0.437459 -0.010440 -0.899178
			 0.780719 -0.448116  0.435512
			 0.609251 -0.444986  0.656354
			 0.892988  0.140319 -0.427648
			 0.836752  0.171232 -0.520122
			 0.956230  0.103829 -0.273575
			 0.923587  0.120425 -0.363984
			 0.986437  0.134696 -0.093802
			 0.981519  0.119760 -0.149260
			 0.992134  0.071871 -0.102495
			 0.997521  0.037723 -0.059403
			 0.982464  0.029732 -0.184067
			 0.985549  0.137982 -0.098252
			 0.992283  0.122464 -0.019416
			 0.991406  0.108327 -0.073343
			 0.990100  0.137926 -0.026032
			 0.974007  0.122340 -0.190638
			 0.991291  0.109853 -0.072629
			 0.998967  0.011348  0.043998
			 0.993447 -0.074092  0.087029
			 0.991679 -0.128735  0.000395
			 0.994970 -0.096546 -0.026706
			 0.991816 -0.116919  0.051298
			 0.951158 -0.278599  0.132968
			 0.963545 -0.260043  0.062919
			 0.940593 -0.290907  0.175092
			 0.461183  0.407437 -0.788229
			 0.410666  0.445441 -0.795573
			 0.774103  0.198784 -0.601041
			 0.502417  0.363178 -0.784652
			 0.580134  0.315569 -0.750907
			 0.714224  0.251344 -0.653231
			 0.631700  0.307673 -0.711542
			 0.333429  0.453015 -0.826803
			-0.507982  0.023180 -0.861056
			-0.555359  0.257481 -0.790747
			-0.281064  0.538975 -0.794046
			-0.310700  0.597168 -0.739497
			-0.161144  0.613567 -0.773025
			-0.000417  0.463064 -0.886325
			-0.166411  0.490421 -0.855450
			 0.122276  0.444076 -0.887606
			 0.234194  0.441257 -0.866282
			-0.682681 -0.726422  0.079104
			-0.180273 -0.847153  0.499833
			-0.733939 -0.659836 -0.161089
			-0.086747 -0.647599  0.757027
			-0.134897 -0.672977  0.727258
			-0.781624 -0.383120 -0.492223
			-0.798103 -0.283871 -0.531460
			-0.252666 -0.620276  0.742575
			-0.775255 -0.258901 -0.576151
			-0.786386 -0.221224 -0.576765
			-0.783376 -0.157142 -0.601356
			-0.141698 -0.729372  0.669281
			-0.079907 -0.874625  0.478170
			-0.042917 -0.899250  0.435324
			-0.077086 -0.780485  0.620403
			-0.060164 -0.862266  0.502869
			-0.033125 -0.888334  0.458002
			-0.090633 -0.864327  0.494697
			 0.012327 -0.907010  0.420929
			 0.070711 -0.879234  0.471114
			 0.155549 -0.887430  0.433904
			 0.194856 -0.865038  0.462320
			 0.103949 -0.901904  0.419241
			 0.230317 -0.852152  0.469883
			 0.210352 -0.871646  0.442702
			 0.227665 -0.816814  0.530078
			 0.247123 -0.824784  0.508588
			 0.212519 -0.850863  0.480486
			 0.126611 -0.828430  0.545594
			 0.057062 -0.804861  0.590713
			-0.011588 -0.668197  0.743895
			-0.099427 -0.610053  0.786098
			-0.072830 -0.812590  0.578268
			-0.054418 -0.717295  0.694642
			-0.260351 -0.696704  0.668447
			 0.086434 -0.586905  0.805029
			-0.003612 -0.670287  0.742093
			-0.119492 -0.831697  0.542219
			-0.181365 -0.782197  0.596048
			-0.220476 -0.731986  0.644660
			-0.199970 -0.759612  0.618871
			-0.096316 -0.869827  0.483865
			-0.105552 -0.873963  0.474391
			-0.074670 -0.887409  0.454896
			-0.235065 -0.780802  0.578872
			 0.139307 -0.663270  0.735300
			 0.353397 -0.677996  0.644540
			-0.732905 -0.104263 -0.672294
			-0.674843 -0.065000 -0.735093
			 0.876189 -0.383245  0.292261
			 0.745015 -0.538193  0.394083
			 0.502497 -0.737042  0.451957
			 0.871676  0.148063 -0.467181
			 0.816759  0.186831 -0.545892
			 0.956646  0.128732 -0.261259
			 0.874030  0.217974 -0.434235
			 0.923811  0.202845 -0.324696
			 0.998079  0.060587  0.012943
			 0.984806  0.116776  0.128534
			 0.985766  0.138573  0.095203
			 0.969535  0.198529 -0.143486
			 0.984861  0.158989 -0.069071
			 0.991124  0.129308  0.030864
			 0.987971 -0.035461  0.150521
			 0.962951 -0.188755  0.192604
			 0.972674 -0.197345  0.122309
			 0.979112 -0.198673  0.043228
			 0.872108 -0.447915  0.196976
			 0.828843 -0.507057  0.236458
			 0.806577 -0.520469  0.280260
			 0.886542 -0.375745  0.269925
			 0.844476 -0.495878  0.202400
			 0.942250 -0.308269  0.130898
			 0.452342  0.377148 -0.808175
			 0.387719  0.430843 -0.814892
			 0.320679  0.473222 -0.820504
			 0.756016  0.264775 -0.598610
			 0.542981  0.356480 -0.760325
			 0.685519  0.328483 -0.649740
			 0.616165  0.354464 -0.703346
			 0.256562  0.458271 -0.850978
			-0.682570  0.073817 -0.727082
			-0.529374  0.444139 -0.722845
			-0.641541  0.267402 -0.718972
			-0.494962  0.455525 -0.739939
			-0.328574  0.571321 -0.752085
			-0.301191  0.526485 -0.795045
			-0.010191  0.430835 -0.902373
			-0.110108  0.439779 -0.891331
			-0.296931  0.467486 -0.832640
			-0.262005  0.431851 -0.863052
			-0.211930  0.432691 -0.876279
			 0.046490  0.450649 -0.891490
			 0.160726  0.458212 -0.874190
			-0.663065 -0.742696 -0.093531
			-0.769709 -0.508459 -0.386028
			-0.303360 -0.929256 -0.210848
			 0.147678 -0.964478  0.219026
			-0.084420 -0.735990  0.671708
			 0.150134 -0.849451  0.505859
			 0.109847 -0.807575  0.579445
			-0.720039 -0.347577 -0.600612
			-0.709319 -0.310218 -0.632954
			-0.727181 -0.227143 -0.647776
			-0.758014 -0.163112 -0.631513
			-0.047630 -0.914974  0.400692
			 0.007458 -0.948365  0.317094
			 0.030692 -0.931962  0.361255
			 0.167584 -0.910686  0.377580
			 0.207879 -0.923081  0.323585
			 0.222650 -0.889462  0.399104
			 0.111364 -0.948254  0.297342
			 0.305701 -0.861960  0.404440
			 0.273549 -0.887525  0.370771
			 0.304491 -0.852949  0.423985
			 0.269183 -0.883772  0.382737
			-0.191576 -0.869160  0.455915
			 0.055216 -0.862170  0.503601
			-0.038996 -0.937899  0.344709
			-0.136839 -0.904581  0.403743
			-0.143225 -0.867534  0.476311
			-0.052252 -0.922469  0.382520
			-0.065004 -0.948912  0.308772
			-0.161028 -0.897111  0.411414
			 0.279320 -0.837742  0.469220
			-0.739170 -0.131243 -0.660608
			-0.716964 -0.017984 -0.696878
			 0.510060 -0.767100  0.389097
			 0.349977 -0.822148  0.448986
			 0.808956  0.249201 -0.532436
			 0.950604  0.218645 -0.220332
			 0.867297  0.323827 -0.378064
			 0.805899  0.327531 -0.493204
			 0.912674  0.305269 -0.271729
			 0.993005  0.043909  0.109602
			 0.969413  0.139293  0.202077
			 0.965514  0.106742  0.237466
			 0.979217  0.050099  0.196532
			 0.962815  0.158179  0.219013
			 0.977616  0.166550  0.128563
			 0.960019  0.269739 -0.074864
			 0.936021  0.305084 -0.175466
			 0.973010  0.230069 -0.017891
			 0.982226  0.182711  0.042995
			 0.978778 -0.048122  0.199193
			 0.965198 -0.169172  0.199432
			 0.905959 -0.363837  0.216475
			 0.912706 -0.362230  0.189096
			 0.737610 -0.618069  0.271888
			 0.670249 -0.685642  0.284010
			 0.647815 -0.714328  0.264710
			 0.765641 -0.598507  0.235760
			 0.349471  0.371260 -0.860253
			 0.426005  0.357597 -0.831050
			 0.520052  0.375675 -0.767082
			 0.486602  0.373662 -0.789680
			 0.250338  0.445176 -0.859738
			 0.181831  0.509105 -0.841278
			 0.738772  0.335374 -0.584586
			 0.612137  0.374804 -0.696284
			 0.668257  0.363034 -0.649338
			-0.695609  0.114285 -0.709272
			-0.658694  0.157454 -0.735752
			-0.576162  0.311965 -0.755457
			-0.445509  0.453362 -0.772001
			-0.400199  0.442407 -0.802569
			-0.066460  0.481058 -0.874166
			-0.174449  0.477268 -0.861268
			-0.365964  0.444337 -0.817701
			-0.350530  0.417024 -0.838582
			-0.299426  0.418114 -0.857627
			-0.261568  0.449145 -0.854313
			 0.050635  0.509070 -0.859234
			-0.618669 -0.574621 -0.535779
			-0.126929 -0.969802 -0.208262
			-0.298552 -0.833127 -0.465582
			-0.373496 -0.717411 -0.588066
			 0.431282 -0.852295  0.295954
			 0.347870 -0.929320  0.123896
			 0.064821 -0.970358 -0.232818
			-0.609655 -0.403842 -0.682080
			-0.637969 -0.371159 -0.674712
			-0.666458 -0.323005 -0.671938
			-0.708618 -0.024947 -0.705151
			-0.673653 -0.158418 -0.721869
			-0.011152 -0.959284  0.282221
			 0.055698 -0.978620  0.197991
			 0.076354 -0.968605  0.236589
			 0.174226 -0.953185  0.247152
			 0.257157 -0.916962  0.305042
			 0.201054 -0.963139  0.178721
			 0.245170 -0.949488  0.195866
			 0.136883 -0.976391  0.167103
			 0.356566 -0.879369  0.315547
			 0.364132 -0.874331  0.320863
			 0.311724 -0.912024  0.266535
			 0.375795 -0.861291  0.341988
			-0.113051 -0.958875  0.260343
			-0.115302 -0.935114  0.335063
			-0.094400 -0.972903  0.211067
			 0.199420 -0.895416  0.398073
			-0.084234 -0.973733  0.211538
			 0.003201 -0.980462  0.196683
			-0.041545 -0.979013  0.199519
			 0.408280 -0.869934  0.276625
			 0.203110 -0.943814  0.260695
			 0.886937  0.354403 -0.296212
			 0.827735  0.369636 -0.422166
			 0.772332  0.360442 -0.523053
			 0.953988  0.145056  0.262422
			 0.955206  0.104239  0.276976
			 0.967897  0.040923  0.247991
			 0.961528  0.194104  0.194389
			 0.942837  0.163672  0.290293
			 0.939657  0.187875  0.285917
			 0.969584  0.228374  0.088050
			 0.963886  0.265767  0.017056
			 0.949434  0.301097 -0.088972
			 0.914021  0.338487 -0.223591
			 0.966826 -0.115992  0.227582
			 0.951167 -0.229963  0.205909
			 0.927256 -0.322461  0.190303
			 0.816384 -0.561636  0.134470
			 0.785423 -0.583651  0.206063
			 0.555790 -0.789543  0.260229
			 0.481564 -0.849338  0.216150
			 0.544819 -0.802144  0.244412
			 0.713853 -0.675531  0.184586
			 0.549148 -0.812412  0.196018
			 0.692552 -0.692200  0.203055
			 0.223211  0.372670 -0.900719
			 0.259545  0.340402 -0.903749
			 0.284421  0.351860 -0.891796
			 0.361344  0.358899 -0.860594
			 0.410720  0.357992 -0.838541
			 0.461177  0.344017 -0.817905
			 0.549791  0.376643 -0.745567
			 0.572898  0.372132 -0.730278
			 0.556648  0.384704 -0.736305
			 0.184128  0.399882 -0.897882
			 0.090490  0.465807 -0.880247
			 0.714865  0.375943 -0.589607
			 0.626349  0.377706 -0.681928
			 0.692816  0.374277 -0.616378
			-0.656832  0.076769 -0.750119
			-0.615400  0.209385 -0.759895
			-0.529864  0.319537 -0.785583
			-0.494964  0.376936 -0.782899
			-0.449611  0.416795 -0.790020
			-0.088893  0.474875 -0.875552
			-0.295501  0.396278 -0.869277
			-0.455249  0.399757 -0.795577
			-0.419581  0.398612 -0.815512
			-0.367499  0.457262 -0.809849
			-0.499202 -0.483058 -0.719341
			-0.364055 -0.798388 -0.479625
			-0.415217 -0.643126 -0.643416
			 0.480632 -0.874280  0.068023
			 0.569399 -0.790922  0.224114
			 0.456286 -0.850513  0.261593
			 0.456972 -0.846950  0.271758
			 0.327037 -0.928660 -0.175036
			-0.102180 -0.792468 -0.601294
			-0.390766 -0.673889 -0.627037
			-0.603665 -0.345019 -0.718714
			-0.557583 -0.386560 -0.734624
			-0.677964 -0.009648 -0.735032
			-0.663022 -0.145322 -0.734359
			 0.032631 -0.988641  0.146708
			 0.085486 -0.993474  0.075510
			 0.107006 -0.986902  0.120724
			 0.169764 -0.980881  0.095141
			 0.205883 -0.976305  0.066645
			 0.243949 -0.966672  0.077674
			 0.317126 -0.934064  0.164183
			 0.146151 -0.988175  0.046362
			 0.393398 -0.883732  0.253487
			-0.073488 -0.989513  0.124354
			-0.041245 -0.996220  0.076449
			 0.134099 -0.981711  0.135131
			-0.008179 -0.996876  0.078562
			 0.371121 -0.906984  0.199122
			 0.869601  0.362606 -0.335128
			 0.781545  0.380402 -0.494450
			 0.829768  0.372590 -0.415525
			 0.950087  0.108559  0.292489
			 0.960673  0.044299  0.274124
			 0.963322  0.031408  0.266505
			 0.959137  0.242380  0.145976
			 0.940374  0.224132  0.255855
			 0.924758  0.216577  0.312917
			 0.928687  0.198121  0.313509
			 0.943590  0.146485  0.296950
			 0.918060  0.222417  0.328171
			 0.962646  0.267612  0.041189
			 0.959672  0.280406 -0.020042
			 0.932124  0.312895 -0.182322
			 0.885459  0.344228 -0.312201
			 0.962261 -0.048002  0.267862
			 0.951619 -0.228093  0.205900
			 0.896003 -0.425357  0.127478
			 0.705958 -0.704952  0.068303
			 0.633275 -0.769978  0.078078
			 0.676623 -0.722840  0.140298
			 0.833508 -0.537320  0.128653
			 0.767428 -0.638667  0.056197
			 0.510724 -0.848821  0.136617
			 0.299204 -0.949709  0.092353
			 0.155483  0.336250 -0.928849
			 0.102786  0.373920 -0.921748
			 0.174985  0.332641 -0.926677
			 0.270398  0.379984 -0.884589
			 0.184692  0.381806 -0.905601
			 0.355869  0.354582 -0.864655
			 0.272503  0.365218 -0.890145
			 0.353891  0.331189 -0.874686
			 0.524387  0.311466 -0.792469
			 0.417061  0.267400 -0.868653
			 0.611182  0.307198 -0.729443
			 0.686541  0.308691 -0.658309
			 0.623834  0.416793 -0.661147
			 0.728802  0.374702 -0.573102
			-0.031960  0.387105 -0.921481
			 0.770202  0.369443 -0.519905
			 0.699780  0.378530 -0.605824
			-0.617220  0.195638 -0.762079
			-0.665072  0.098739 -0.740222
			-0.575799  0.293584 -0.763062
			-0.587228  0.354147 -0.727834
			-0.528175  0.383834 -0.757432
			-0.145670  0.337367 -0.930034
			-0.441725  0.292816 -0.848020
			-0.422209  0.260329 -0.868313
			-0.237349  0.282204 -0.929530
			-0.469979  0.388711 -0.792479
			-0.357958  0.273220 -0.892870
			-0.542389  0.369579 -0.754471
			-0.468890  0.414706 -0.779847
			-0.482189 -0.524784 -0.701496
			-0.565416 -0.297029 -0.769467
			 0.583165 -0.805139  0.108026
			 0.645118 -0.737557  0.199579
			 0.552310 -0.817261  0.164436
			 0.497735 -0.848465  0.179908
			 0.483209 -0.843866  0.233236
			 0.295793 -0.953167 -0.063079
			-0.061683 -0.961947 -0.266183
			 0.047299 -0.909871 -0.412187
			-0.268149 -0.742535 -0.613790
			-0.524851 -0.495055 -0.692425
			-0.531563 -0.385233 -0.754346
			-0.537517 -0.434739 -0.722549
			-0.614745 -0.235637 -0.752704
			-0.698935  0.044197 -0.713818
			-0.673348 -0.050540 -0.737597
			 0.050445 -0.998544  0.019135
			 0.107058 -0.993264 -0.044319
			 0.130406 -0.991407  0.010279
			 0.172039 -0.985090 -0.001078
			 0.183001 -0.981686 -0.052940
			 0.204239 -0.978773 -0.016992
			 0.235398 -0.971543 -0.026300
			 0.293825 -0.953755  0.063389
			 0.352057 -0.930484  0.101272
			 0.418186 -0.896579  0.145830
			 0.401716 -0.893770  0.199497
			 0.155755 -0.984677 -0.078432
			-0.040716 -0.999088  0.012883
			 0.110180 -0.993397 -0.031986
			 0.020611 -0.995522 -0.092257
			 0.005314 -0.999510 -0.030859
			 0.842453  0.344820 -0.413971
			 0.958020  0.044162  0.283279
			 0.954495  0.048952  0.294183
			 0.963047 -0.045625  0.265442
			 0.944024  0.230319  0.236162
			 0.960301  0.244428  0.134451
			 0.911515  0.249495  0.326946
			 0.916426  0.245163  0.316321