<?xml version="1.0"?>
<VTKFile type="PolyData" version="0.1" byte_order="LittleEndian" compressor="vtkZLibDataCompressor">
	<PolyData>
		<Piece NumberOfPoints="27816" NumberOfVerts="0" NumberOfLines="0" NumberOfStrips="0" NumberOfPolys="55574">
		<PointData Normals="Normals">
		<DataArray type="Float32" Name="Normals" NumberOfComponents="3" format="ascii">
			 0.929361  0.077088  0.361034
			 0.930801  0.188898  0.312933
			 0.785835  0.070846  0.614365
			 0.944063  0.192259  0.267922
			 0.935993  0.249737  0.248090
			 0.922581  0.070138  0.379374
			 0.959781  0.228073  0.163716
			 0.845081  0.006599  0.534598
			 0.955396  0.189230  0.226738
			 0.841927  0.143477  0.520167
			 0.974402  0.224799 -0.002394
			 0.685615  0.060461  0.725450
			 0.655084  0.017318  0.755358
			 0.703944  0.058785  0.707818
			 0.783074  0.080227  0.616732
			 0.921803  0.186412  0.339896
			 0.938712  0.259583  0.226797
			 0.873791  0.119416  0.471412
			 0.966337  0.252202  0.050862
			 0.967326  0.166144  0.191509
			 0.884978  0.146668  0.441930
			 0.983478  0.171502 -0.057946
			 0.768592  0.108933  0.630397
			 0.938676  0.209750 -0.273666
			 0.959234  0.259051 -0.112970
			 0.566050  0.046486  0.823059
			 0.530062  0.006507  0.847934
			 0.640041  0.086626  0.763442
			 0.583558  0.025562  0.811669
			 0.620479  0.060855  0.781858
			 0.717373  0.176802  0.673882
			 0.663665  0.209642  0.718052
			 0.779682  0.247666  0.575115
			 0.936095  0.219063  0.275204
			 0.869749  0.253946  0.423140
			 0.948544  0.316626 -0.003481
			 0.949727  0.307628 -0.058167
			 0.929567  0.336610  0.150328
			 0.985309  0.167706  0.032277
			 0.925222  0.145183  0.350550
			 0.779086  0.115484  0.616188
			 0.956658  0.161090 -0.242602
			 0.958540  0.153986 -0.239771
			 0.966445  0.185050 -0.178161
			 0.895530  0.155883 -0.416805
			 0.832892  0.207849 -0.512922
			 0.917526  0.309001 -0.250329
			 0.864892  0.304580 -0.398989
			 0.943614  0.307401 -0.122871
			 0.440949  0.034424  0.896872
			 0.362210  0.006385  0.932075
			 0.546472  0.049192  0.836031
			 0.481606  0.072233  0.873406
			 0.582064  0.041471  0.812084
			 0.574276  0.191846  0.795866
			 0.705442  0.282367  0.650092
			 0.628324  0.311525  0.712854
			 0.686353  0.302568  0.661341
			 0.710365  0.284601  0.643727
			 0.755949  0.245494  0.606855
			 0.811714  0.244437  0.530444
			 0.848754  0.312426  0.426622
			 0.894335  0.312451  0.320219
			 0.920556  0.389991 -0.021983
			 0.893231  0.429882 -0.131681
			 0.889177  0.345832  0.299608
			 0.904520  0.406050  0.130259
			 0.966453  0.140780  0.214824
			 0.955562  0.180643 -0.232957
			 0.983839  0.161439 -0.077446
			 0.834102  0.096936  0.543026
			 0.922344  0.173551 -0.345199
			 0.893961  0.201129 -0.400477
			 0.752801  0.173756 -0.634901
			 0.842953  0.172585 -0.509553
			 0.662179  0.173645 -0.728949
			 0.739722  0.218342 -0.636504
			 0.820380  0.274950 -0.501377
			 0.902976  0.400003 -0.156944
			 0.838737  0.463312 -0.286115
			 0.785625  0.440113 -0.434848
			 0.858564  0.474342 -0.194598
			 0.316945 -0.009066  0.948401
			 0.268464 -0.003595  0.963283
			 0.323235  0.172210  0.930518
			 0.417974  0.089429  0.904047
			 0.184544  0.062913  0.980809
			 0.494300  0.224568  0.839784
			 0.732316  0.063746  0.677975
			 0.353186 -0.019786  0.935344
			 0.524571  0.013330  0.851262
			 0.561341  0.317803  0.764132
			 0.673867  0.291393  0.678965
			 0.599577  0.322970  0.732255
			 0.713539  0.269998  0.646500
			 0.797053  0.077107  0.598967
			 0.826515  0.091955  0.555354
			 0.753918  0.142917  0.641235
			 0.851344  0.095520  0.515839
			 0.858738  0.248858  0.447926
			 0.898757  0.306684  0.313339
			 0.700824  0.649819 -0.294248
			 0.869564  0.488103 -0.074928
			 0.910086  0.414415  0.001870
			 0.923839  0.338865  0.178024
			 0.913018  0.107347  0.393542
			 0.989222  0.136865  0.052044
			 0.854776  0.182114 -0.485997
			 0.940361  0.168545 -0.295490
			 0.965462  0.172222 -0.195508
			 0.756980  0.182202 -0.627522
			 0.584266  0.159333 -0.795768
			 0.578325  0.169007 -0.798108
			 0.587378  0.218891 -0.779150
			 0.472067  0.138528 -0.870611
			 0.797930  0.242944 -0.551622
			 0.751653  0.175872 -0.635679
			 0.657989  0.229520 -0.717197
			 0.745839  0.372478 -0.552253
			 0.804625  0.549382 -0.225293
			 0.736484  0.560998 -0.377984
			 0.713864  0.534890 -0.451986
			 0.065690 -0.057477  0.996183
			 0.169330 -0.039083  0.984784
			 0.170548 -0.039453  0.984559
			 0.363914  0.311473  0.877810
			 0.433936  0.295874  0.850975
			 0.423224  0.207082  0.882042
			 0.270207  0.309880  0.911572
			 0.187615  0.251713  0.949442
			 0.107809  0.067545  0.991874
			 0.126815  0.142240  0.981675
			 0.498437  0.324094  0.804067
			 0.818574  0.079421  0.568884
			 0.599824  0.033192  0.799443
			 0.174901 -0.039930  0.983776
			 0.375533 -0.013980  0.926704
			 0.522722  0.317568  0.791146
			 0.724625  0.165849  0.668889
			 0.664818  0.212469  0.716152
			 0.582546  0.212076  0.784642
			 0.817199 -0.119988  0.563727
			 0.796693 -0.116278  0.593094
			 0.832526 -0.137882  0.536554
			 0.770336 -0.040213  0.636369
			 0.875883 -0.073322  0.476921
			 0.901748  0.140853  0.408670
			 0.942690  0.176536  0.283143
			 0.841282  0.519913 -0.148106
			 0.960914  0.236447  0.144006
			 0.963955  0.263522  0.036694
			 0.950352  0.298968 -0.086316
			 0.864170  0.471665 -0.175334
			 0.943957  0.119845  0.307544
			 0.955964  0.119170  0.268202
			 0.991852  0.127349  0.003335
			 0.953966  0.155387 -0.256521
			 0.694711  0.179164 -0.696619
			 0.888331  0.183523 -0.420937
			 0.750636  0.170544 -0.638327
			 0.610792  0.154941 -0.776483
			 0.432169  0.141606 -0.890605
			 0.378560  0.158500 -0.911905
			 0.425438  0.134869 -0.894882
			 0.637120  0.378496 -0.671430
			 0.531218  0.367117 -0.763566
			 0.479846  0.232175 -0.846075
			 0.482649  0.089498 -0.871229
			 0.424537  0.084258 -0.901482
			 0.350858  0.123762 -0.928214
			 0.390084  0.131164 -0.911389
			 0.318141  0.130963 -0.938954
			 0.727950  0.218606 -0.649846
			 0.654590  0.524287 -0.544642
			 0.783266  0.552913 -0.284220
			 0.775675  0.507984 -0.374540
			 0.710911  0.534923 -0.456577
			 0.680840  0.571021 -0.458685
			 0.047328 -0.067370  0.996605
			-0.070014 -0.104454  0.992062
			-0.103840 -0.115795  0.987830
			-0.046089  0.076436  0.996009
			-0.044577  0.069030  0.996618
			 0.069076  0.050573  0.996329
			-0.098698 -0.010454  0.995062
			 0.008391  0.108036  0.994112
			-0.011047 -0.046470  0.998859
			-0.024237 -0.086132  0.995989
			 0.082640 -0.054565  0.995085
			 0.324023  0.333858  0.885182
			 0.432049  0.319714  0.843277
			 0.219734  0.361879  0.905958
			 0.126671  0.345935  0.929669
			 0.093576  0.231801  0.968252
			 0.082708  0.150310  0.985173
			 0.749795  0.044641  0.660163
			 0.619631  0.017055  0.784708
			 0.900477  0.088514  0.425800
			 0.442709  0.001326  0.896664
			-0.014280 -0.058163  0.998205
			 0.109048 -0.049725  0.992792
			-0.017324 -0.082558  0.996436
			 0.257131 -0.017818  0.966212
			 0.495400  0.208731  0.843214
			 0.733383  0.010343  0.679736
			 0.667582  0.052285  0.742698
			 0.575981  0.010007  0.817402
			 0.524437  0.064528  0.849001
			 0.772659 -0.378175  0.509885
			 0.770244 -0.336436  0.541789
			 0.769468 -0.314550  0.555857
			 0.739337 -0.350524  0.574903
			 0.773809 -0.183014  0.606403
			 0.800731 -0.253671  0.542661
			 0.819166 -0.290901  0.494312
			 0.731612 -0.292649  0.615711
			 0.853981 -0.316429  0.413024
			 0.923423 -0.039694  0.381727
			 0.953852 -0.034409  0.298300
			 0.977913  0.020389  0.208016
			 0.993465  0.087870  0.072842
			 0.976130  0.208303 -0.061491
			 0.972154  0.144540 -0.184459
			 0.905052  0.354719 -0.234640
			 0.825038  0.483211 -0.292950
			 0.972839  0.143816  0.181390
			 0.984778  0.165133 -0.054260
			 0.824733  0.192583 -0.531721
			 0.901855  0.193857 -0.386105
			 0.962624  0.206309 -0.175476
			 0.522104  0.166421 -0.836487
			 0.540679  0.129017 -0.831276
			 0.653131  0.166604 -0.738690
			 0.690518  0.208794 -0.692524
			 0.512733  0.138942 -0.847231
			 0.290531  0.130532 -0.947920
			 0.225127  0.141596 -0.963986
			 0.240600  0.137845 -0.960786
			 0.404993  0.144469 -0.902834
			 0.268955  0.112703 -0.956536
			 0.596543  0.510629 -0.619189
			 0.510119  0.508706 -0.693539
			 0.447759  0.422050 -0.788280
			 0.385250  0.348569 -0.854448
			 0.417003  0.141864 -0.897765
			 0.343810  0.268383 -0.899870
			 0.216876  0.248168 -0.944128
			 0.250115  0.130888 -0.959328
			 0.269323  0.116563 -0.955970
			 0.189680  0.123744 -0.974017
			 0.152129  0.125956 -0.980302
			 0.581176  0.549439 -0.600293
			 0.653644  0.525825 -0.544295
			 0.772770  0.462100 -0.435076
			 0.873617  0.351235 -0.336790
			 0.838271  0.343146 -0.423737
			 0.773746  0.368725 -0.515130
			-0.078191 -0.060015  0.995130
			-0.197523 -0.101805  0.974998
			-0.172934 -0.083443  0.981392
			-0.251601 -0.112628  0.961255
			-0.075130  0.138681  0.987483
			-0.034478  0.171159  0.984640
			-0.218563 -0.047360  0.974673
			-0.166158  0.127201  0.977861
			-0.003269  0.253763  0.967261
			-0.160027 -0.107867  0.981201
			-0.185346 -0.133722  0.973532
			-0.178766 -0.103456  0.978437
			 0.246493  0.338431  0.908133
			 0.273025  0.234269  0.933047
			 0.377520  0.221042  0.899233
			 0.443142  0.201793  0.873444
			 0.158212  0.337732  0.927850
			 0.056519  0.317912  0.946434
			 0.046241  0.324496  0.944756
			 0.578842  0.035094  0.814685
			 0.789846  0.083747  0.607560
			 0.633433  0.080871  0.769560
			 0.419550  0.007380  0.907702
			 0.945330  0.167301  0.279933
			 0.867804  0.134085  0.478474
			-0.192700 -0.103348  0.975800
			-0.015548 -0.069693  0.997447
			 0.086921 -0.036541  0.995545
			-0.155458 -0.096029  0.983164
			 0.265467 -0.013295  0.964028
			 0.463035  0.034861  0.885654
			 0.476020 -0.014252  0.879319
			 0.698790 -0.171148  0.694551
			 0.610106 -0.237134  0.756002
			 0.487549 -0.158768  0.858539
			 0.504085 -0.207863  0.838267
			 0.570050 -0.171660  0.803477
			 0.704418 -0.501073  0.502714
			 0.643135 -0.613845  0.457790
			 0.685043 -0.569075  0.454829
			 0.766480 -0.393591  0.507538
			 0.671664 -0.588565  0.449953
			 0.700922 -0.475994  0.531167
			 0.634167 -0.601669  0.485620
			 0.659143 -0.556782  0.505493
			 0.752842 -0.481141  0.449145
			 0.666513 -0.524251  0.530020
			 0.668730 -0.469468  0.576541
			 0.632852 -0.480849  0.606862
			 0.662395 -0.338759  0.668188
			 0.774436 -0.533321  0.340320
			 0.745591 -0.537614  0.393784
			 0.899710 -0.279472  0.335288
			 0.934760 -0.249049  0.253375
			 0.966494 -0.213385  0.142675
			 0.991821 -0.126270 -0.018625
			 0.996959  0.075654 -0.018709
			 0.992216  0.069799 -0.103132
			 0.970331 -0.197017 -0.140148
			 0.940021  0.130890 -0.315007
			 0.975838  0.209814  0.060977
			 0.825988  0.244674 -0.507817
			 0.694818  0.238887 -0.678352
			 0.919513  0.251576 -0.302001
			 0.964094  0.244216 -0.104313
			 0.371152  0.136301 -0.918514
			 0.385505  0.126411 -0.914006
			 0.343677  0.123515 -0.930930
			 0.486847  0.101530 -0.867567
			 0.322558  0.080806 -0.943094
			 0.541748  0.186790 -0.819523
			 0.534895  0.232169 -0.812394
			 0.575008  0.238837 -0.782511
			 0.099872  0.117161 -0.988078
			 0.103922  0.073253 -0.991884
			 0.151491  0.088844 -0.984458
			 0.250010  0.110077 -0.961966
			 0.492559  0.478473 -0.726945
			 0.444970  0.463730 -0.766130
			 0.428917  0.496017 -0.754982
			 0.577104  0.504907 -0.641888
			 0.369549  0.430618 -0.823408
			 0.273121  0.416038 -0.867362
			 0.154419  0.420576 -0.894019
			 0.153296  0.321167 -0.934533
			 0.148183  0.198407 -0.968853
			 0.158231  0.109791 -0.981279
			 0.144517  0.096991 -0.984737
			 0.055169  0.110550 -0.992338
			 0.009510  0.096839 -0.995255
			 0.741474  0.352585 -0.570877
			 0.679469  0.391673 -0.620414
			 0.893048  0.134483 -0.429395
			 0.853249  0.094220 -0.512922
			 0.805819  0.163627 -0.569106
			-0.316417 -0.124400  0.940428
			-0.266012 -0.108744  0.957817
			-0.341494 -0.089165  0.935645
			-0.404970 -0.141289  0.903348
			-0.118555  0.245049  0.962235
			-0.247006  0.061579  0.967055
			-0.201172  0.200648  0.958786
			-0.079923  0.299132  0.950859
			-0.038998  0.271747  0.961578
			-0.332929 -0.145122  0.931718
			-0.308442 -0.152880  0.938878
			-0.355797 -0.149491  0.922530
			-0.310141 -0.123887  0.942584
			 0.169241  0.248861  0.953638
			 0.157534  0.116804  0.980581
			 0.241743  0.040404  0.969499
			 0.313608  0.039552  0.948728
			 0.370397  0.033859  0.928256
			 0.425382  0.036942  0.904260
			 0.077488  0.234760  0.968960
			-0.008564  0.283291  0.958996
			-0.000307  0.198039  0.980194
			 0.438633  0.044460  0.897566
			 0.734527  0.132610  0.665496
			 0.522007  0.067667  0.850253
			 0.961379  0.215310  0.171441
			 0.885835  0.189880  0.423370
			-0.347485 -0.135275  0.927876
			-0.234557 -0.105654  0.966344
			-0.323994 -0.144985  0.934884
			-0.042990 -0.055922  0.997509
			-0.107422 -0.118904  0.987078
			 0.148233 -0.048241  0.987775
			 0.001862 -0.076727  0.997050
			-0.303899 -0.175080  0.936479
			 0.309582 -0.000173  0.950873
			 0.394450 -0.254508  0.882969
			 0.425507 -0.246141  0.870838
			 0.492623 -0.477548  0.727510
			 0.586240 -0.487629  0.646947
			 0.501089 -0.331968  0.799192
			 0.462469 -0.466978  0.753694
			 0.417233 -0.365729  0.831961
			 0.615624 -0.639629  0.460306
			 0.584076 -0.699388  0.411960
			 0.457671 -0.819589  0.344691
			 0.527972 -0.748560  0.401128
			 0.638140 -0.660079  0.396325
			 0.490624 -0.789261  0.369263
			 0.524647 -0.750503  0.401859
			 0.563032 -0.678716  0.471529
			 0.568161 -0.639529  0.517876
			 0.490745 -0.669718  0.557357
			 0.657073 -0.686908  0.310505
			 0.647777 -0.688346  0.326442
			 0.807249 -0.515471  0.287470
			 0.865603 -0.467273  0.179967
			 0.940027 -0.339811  0.029625
			 0.889106 -0.434240 -0.144662
			 0.842633 -0.538164  0.018685
			 0.942083 -0.169955 -0.289128
			 0.898642  0.245485 -0.363566
			 0.733144  0.202149 -0.649335
			 0.531168  0.224330 -0.817029
			 0.969214  0.202488 -0.140077
			 0.283850  0.119219 -0.951428
			 0.179269  0.102683 -0.978427
			 0.373080  0.157468 -0.914339
			 0.221542  0.118614 -0.967910
			 0.346822  0.201146 -0.916108
			 0.421221  0.219204 -0.880069
			-0.000423  0.070590 -0.997505
			-0.001982  0.025864 -0.999664
			 0.059731  0.039216 -0.997444
			 0.081402  0.084875 -0.993061
			 0.149946  0.108677 -0.982703
			 0.092590  0.098437 -0.990827
			 0.480047  0.346973 -0.805707
			 0.569013  0.371300 -0.733731
			 0.393599  0.432827 -0.811012
			 0.403489  0.339435 -0.849695
			 0.643022  0.360494 -0.675697
			 0.370383  0.339604 -0.864572
			 0.385381  0.335640 -0.859551
			 0.329522  0.394919 -0.857586
			 0.241713  0.404666 -0.881941
			 0.166823  0.441238 -0.881748
			 0.092926  0.410834 -0.906962
			 0.115522  0.314492 -0.942205
			 0.163016  0.246219 -0.955407
			 0.125803  0.029796 -0.991608
			 0.089164 -0.272639 -0.957976
			 0.131518  0.132948 -0.982358
			 0.031206  0.112280 -0.993186
			-0.046814  0.083041 -0.995446
			-0.067691  0.055485 -0.996162
			 0.793678  0.135818 -0.592982
			 0.743173  0.270060 -0.612177
			 0.721225  0.179128 -0.669140
			 0.897840 -0.164965 -0.408251
			 0.852661 -0.185330 -0.488489
			 0.811597 -0.153910 -0.563579
			-0.416624 -0.134994  0.899000
			-0.479352 -0.177319  0.859523
			-0.386423 -0.099489  0.916940
			-0.485947 -0.120178  0.865686
			-0.294769  0.118237  0.948225
			-0.399792  0.074505  0.913573
			-0.433146  0.070184  0.898587
			-0.250338  0.127119  0.959777
			-0.257931  0.089182  0.962039
			-0.152758  0.296487  0.942741
			-0.231114  0.257494  0.938234
			-0.111732  0.237822  0.964861
			-0.087444  0.132201  0.987358
			-0.053268  0.151331  0.987047
			-0.507599 -0.150394  0.848366
			-0.446523 -0.185861  0.875256
			-0.466547 -0.192283  0.863343
			-0.452586 -0.165889  0.876154
			 0.174861 -0.122449  0.976949
			 0.036111  0.050284  0.998082
			 0.235302 -0.206405  0.949753
			 0.283904 -0.150174  0.947020
			 0.334597 -0.220557  0.916187
			-0.041129  0.027453  0.998777
			 0.848561  0.167377  0.501925
			 0.640501  0.099135  0.761532
			 0.434527 -0.008795  0.900616
			 0.952537  0.198042  0.231199
			 0.976146  0.217109 -0.001536
			-0.444286 -0.180470  0.877520
			-0.378852 -0.172976  0.909148
			-0.439920 -0.210929  0.872914
			-0.238975 -0.189058  0.952443
			-0.101487 -0.086075  0.991106
			-0.168308 -0.093287  0.981310
			 0.171539 -0.034068  0.984588
			 0.056263 -0.061184  0.996540
			-0.443342 -0.217260  0.869624
			-0.265351 -0.121086  0.956518
			-0.345811 -0.199603  0.916828
			 0.213534 -0.023758  0.976647
			 0.352765 -0.481726  0.802183
			 0.335913 -0.520639  0.784919
			 0.365167 -0.394997  0.842989
			 0.314689 -0.521210  0.793291
			 0.333051 -0.475773  0.814075
			 0.425216 -0.632752  0.647160
			 0.288601 -0.706585  0.646102
			 0.349277 -0.533081  0.770604
			 0.325080 -0.909969  0.257448
			 0.273320 -0.934774  0.226921
			 0.408549 -0.854383  0.321119
			 0.260039 -0.939046  0.224883
			 0.501124 -0.782633  0.369270
			 0.533907 -0.788617  0.305003
			 0.375884 -0.873655  0.308930
			 0.424299 -0.823204  0.377234
			 0.425904 -0.779505  0.459323
			 0.496860 -0.747942  0.440130
			 0.351992 -0.793649  0.496209
			 0.580126 -0.768578  0.269707
			 0.712913 -0.651278  0.259985
			 0.485599 -0.833654  0.263088
			 0.763073 -0.625330  0.163345
			 0.774694 -0.623436 -0.105727
			 0.820831 -0.515412 -0.246143
			 0.670580 -0.739298  0.061330
			 0.668510 -0.743128 -0.029232
			 0.649899 -0.739855  0.173915
			 0.899901  0.179894 -0.397260
			 0.501129  0.158267 -0.850777
			 0.817402  0.149285 -0.556389
			 0.620917  0.131580 -0.772754
			 0.381336  0.154588 -0.911419
			 0.370460  0.177204 -0.911788
			 0.959680  0.203450 -0.193967
			 0.132660  0.100966 -0.986006
			 0.109479  0.080659 -0.990711
			 0.244829  0.157460 -0.956695
			-0.077911  0.013781 -0.996865
			 0.023085  0.056578 -0.998131
			-0.016942  0.014300 -0.999754
			 0.060249  0.026562 -0.997830
			 0.566369  0.153620 -0.809708
			 0.439614  0.193478 -0.877101
			 0.673033  0.150178 -0.724205
			 0.372039  0.199605 -0.906502
			 0.427951  0.173966 -0.886901
			 0.377470  0.276122 -0.883896
			 0.248854  0.275994 -0.928385
			 0.133055  0.348374 -0.927864
			 0.032357  0.327930 -0.944148
			 0.004527  0.387205 -0.921983
			-0.019010  0.328606 -0.944276
			 0.018852  0.220723 -0.975154
			 0.157571 -0.056084 -0.985914
			 0.093660 -0.300112 -0.949295
			-0.059248  0.147746 -0.987249
			-0.078131  0.079862 -0.993739
			-0.077081  0.071898 -0.994429
			-0.140538  0.052993 -0.988656
			-0.162253 -0.007864 -0.986718
			 0.759009 -0.071170 -0.647178
			 0.760844  0.127495 -0.636287
			 0.786296 -0.514658 -0.341857
			 0.754106 -0.488246 -0.439249
			 0.742190 -0.307367 -0.595550
			 0.712540 -0.441097 -0.545637
			-0.537669 -0.148709  0.829938
			-0.516546 -0.097633  0.850675
			-0.613054 -0.150289  0.775614
			-0.625307 -0.099379  0.774025
			-0.448466  0.021814  0.893534
			-0.437320  0.077315  0.895977
			-0.514396  0.003569  0.857546
			-0.365994  0.213071  0.905897
			-0.430800  0.196163  0.880869
			-0.180381  0.218961  0.958915
			-0.226494  0.299884  0.926699
			-0.322363  0.314130  0.892975
			-0.146253  0.100059  0.984174
			-0.096193 -0.034525  0.994764
			-0.120935 -0.057645  0.990985
			-0.082059 -0.047371  0.995501
			-0.630158 -0.192210  0.752300
			-0.543504 -0.194537  0.816553
			-0.566973 -0.210278  0.796445
			-0.525448 -0.182300  0.831066
			-0.579627 -0.210931  0.787109
			-0.542378 -0.228427  0.808484
			 0.039684 -0.189532  0.981072
			 0.139591 -0.279230  0.950024
			 0.162408 -0.409473  0.897751
			-0.048005 -0.131994  0.990087
			-0.003851 -0.189355  0.981901
			 0.200110 -0.445006  0.872883
			 0.272054 -0.423111  0.864271
			 0.273633 -0.482346  0.832146
			-0.096683 -0.220881  0.970497
			 0.869820  0.158745  0.467132
			 0.722739  0.074468  0.687097
			 0.224866  0.017724  0.974228
			 0.136494 -0.040170  0.989826
			 0.229117 -0.046139  0.972305
			 0.441508 -0.023900  0.896939
			 0.478083  0.037019  0.877534
			 0.596189  0.007705  0.802808
			 0.915943  0.196645  0.349826
			 0.975686  0.211325 -0.058127
			 0.969929  0.206642  0.128597
			 0.938272  0.204051 -0.279302
			-0.535748 -0.244087  0.808329
			-0.454912 -0.209224  0.865610
			-0.533694 -0.248077  0.808473
			-0.125178 -0.124024  0.984352
			 0.002871 -0.074168  0.997242
			-0.247673 -0.154710  0.956411
			 0.119255 -0.037797  0.992144
			-0.595944 -0.287106  0.749947
			-0.420290 -0.250640  0.872087
			-0.534344 -0.297009  0.791367
			-0.309185 -0.194910  0.930814
			-0.400743 -0.252086  0.880828
			 0.292932 -0.630217  0.719040
			 0.240347 -0.759189  0.604868
			 0.264464 -0.732177  0.627675
			 0.284248 -0.598466  0.749027
			 0.337256 -0.746446  0.573652
			 0.249999 -0.683988  0.685318
			 0.194867 -0.816215  0.543893
			 0.153450 -0.891425  0.426398
			 0.227709 -0.843541  0.486403
			 0.176834 -0.970609  0.163241
			 0.227454 -0.946089  0.230608
			 0.142719 -0.977635  0.154468
			 0.398866 -0.882363  0.249683
			 0.130596 -0.970482  0.202756
			 0.170678 -0.968796  0.179732
			 0.322661 -0.918896  0.226978
			 0.023215 -0.989602  0.141947
			 0.367631 -0.848234  0.381244
			 0.249527 -0.905550  0.343098
			 0.448965 -0.864103  0.227502
			 0.653218 -0.748872 -0.111793
			 0.635353 -0.749948 -0.184130
			 0.727328 -0.639855 -0.248153
			 0.540736 -0.840065  0.043543
			 0.493861 -0.856880  0.147845
			 0.475247 -0.879852 -0.000587
			 0.344977  0.133867 -0.929016
			 0.478099  0.136536 -0.867629
			 0.362223  0.117144 -0.924701
			 0.843179  0.188305 -0.503577
			 0.709752  0.154468 -0.687308
			 0.570149  0.156729 -0.806453
			 0.233532  0.109703 -0.966141
			 0.247521  0.095508 -0.964164
			 0.092591  0.103734 -0.990286
			 0.149122  0.104095 -0.983324
			 0.116271  0.072429 -0.990573
			-0.155461  0.047593 -0.986695
			-0.157813  0.030256 -0.987005
			-0.170666 -0.041728 -0.984445
			-0.043191 -0.077832 -0.996031
			 0.074920 -0.050406 -0.995915
			 0.510361 -0.009382 -0.859909
			 0.583556 -0.122701 -0.802750
			 0.668472  0.037186 -0.742807
			 0.423535  0.024020 -0.905561
			 0.384166  0.046018 -0.922117
			 0.335556  0.009683 -0.941971
			 0.383433 -0.026873 -0.923177
			 0.456261  0.131951 -0.880008
			 0.472188 -0.045346 -0.880331
			 0.401002  0.099826 -0.910622
			 0.304065  0.160250 -0.939076
			 0.208130  0.072886 -0.975382
			 0.107104  0.165275 -0.980414
			 0.034099  0.236702 -0.970984
			 0.004419  0.143799 -0.989597
			 0.000011  0.268779 -0.963202
			-0.019974  0.306491 -0.951664
			-0.053099  0.376279 -0.924984
			-0.075264  0.360008 -0.929909
			-0.051001  0.272606 -0.960773
			-0.083655  0.210407 -0.974028
			-0.060899  0.091489 -0.993942
			-0.156578  0.069713 -0.985202
			-0.243506  0.102418 -0.964477
			-0.116675  0.105400 -0.987561
			-0.094542  0.169882 -0.980919
			-0.352355  0.036858 -0.935141
			-0.451064 -0.083771 -0.888551
			-0.279176 -0.109291 -0.954000
			-0.241692 -0.061817 -0.968382
			 0.696824 -0.190672 -0.691434
			 0.622852 -0.751888 -0.216150
			 0.622965 -0.744289 -0.240724
			 0.715137 -0.622929 -0.317079
			 0.621373 -0.736769 -0.266585
			 0.612646 -0.706100 -0.355087
			 0.667099 -0.600188 -0.441308
			 0.637892 -0.585784 -0.499951
			 0.641273 -0.464243 -0.610939
			 0.570501 -0.699794 -0.429904
			-0.691156 -0.157653  0.705300
			-0.706973 -0.166718  0.687310
			-0.764201 -0.138990  0.629824
			-0.665962 -0.010264  0.745915
			-0.593296  0.045694  0.803686
			-0.566178  0.037486  0.823430
			-0.487699  0.079510  0.869384
			-0.492151  0.083295  0.866516
			-0.459207  0.170989  0.871718
			-0.554635  0.089434  0.827273
			-0.518070  0.176459  0.836938
			-0.434360  0.252937  0.864496
			-0.232424  0.210688  0.949521
			-0.207966  0.075033  0.975254
			-0.300261  0.302516  0.904614
			-0.429014  0.342161  0.835986
			-0.168357 -0.104308  0.980192
			-0.127785 -0.255565  0.958310
			-0.104948 -0.264653  0.958616
			-0.137554 -0.251211  0.958109
			-0.121227 -0.292735  0.948478
			-0.749066 -0.182578  0.636840
			-0.680315 -0.228748  0.696309
			-0.658380 -0.279205  0.698985
			 0.008900 -0.419095  0.907899
			-0.052174 -0.424985  0.903695
			 0.026901 -0.577132  0.816208
			 0.135382 -0.615936  0.776077
			-0.061872 -0.302110  0.951263
			 0.222429 -0.563921  0.795310
			 0.237188 -0.645754  0.725771
			-0.143669 -0.447967  0.882431
			-0.116199 -0.418676  0.900671
			 0.829045  0.155111  0.537238
			 0.669029  0.098052  0.736741
			 0.126089 -0.055299  0.990476
			 0.017156 -0.073353  0.997158
			-0.023298 -0.077827  0.996695
			 0.251299 -0.003072  0.967905
			 0.518022  0.055155  0.853587
			 0.902682  0.194847  0.383667
			 0.968305  0.206824 -0.140036
			 0.904306  0.194744 -0.379875
			 0.972070  0.230587  0.043692
			 0.948386  0.226227  0.222230
			 0.954757  0.233811 -0.183770
			-0.221465 -0.130248  0.966431
			-0.146513 -0.089637  0.985139
			-0.267906 -0.162078  0.949714
			-0.765292 -0.317104  0.560155
			-0.740663 -0.289895  0.606118
			-0.727038 -0.259403  0.635709
			-0.537648 -0.304723  0.786180
			-0.700098 -0.310610  0.642949
			-0.311317 -0.237069  0.920261
			-0.515749 -0.295849  0.804037
			 0.216900 -0.852197  0.476145
			 0.173099 -0.894671  0.411826
			 0.122801 -0.898767  0.420879
			 0.188698 -0.790821  0.582234
			 0.176981 -0.857416  0.483234
			 0.160668 -0.907463  0.388195
			 0.069273 -0.955191  0.287770
			 0.123978 -0.949620  0.287839
			 0.042140 -0.995109  0.089341
			 0.087709 -0.989341  0.116236
			 0.110625 -0.978533  0.173880
			 0.076721 -0.988415  0.130959
			 0.167506 -0.976292  0.137098
			 0.306473 -0.934208  0.182566
			-0.115191 -0.992382  0.043701
			-0.142226 -0.983168  0.114680
			-0.040916 -0.993922  0.102202
			 0.520687 -0.847567 -0.102546
			 0.450363 -0.886188 -0.108830
			 0.385370 -0.916190  0.109935
			 0.293308 -0.955668  0.025859
			 0.224511  0.089893 -0.970317
			 0.235040  0.096788 -0.967155
			 0.406527  0.134181 -0.903732
			 0.465894  0.154908 -0.871175
			 0.239174  0.089992 -0.966797
			 0.321436  0.115517 -0.939859
			 0.730056  0.191552 -0.655992
			 0.587821  0.168589 -0.791229
			 0.117785  0.065711 -0.990863
			 0.170208  0.064628 -0.983287
			 0.131535  0.059445 -0.989528
			 0.078202  0.129305 -0.988517
			 0.046305  0.161119 -0.985848
			-0.041891  0.103338 -0.993764
			 0.034905  0.052595 -0.998006
			 0.021840 -0.042861 -0.998842
			 0.011667  0.009982 -0.999882
			-0.014706  0.137055 -0.990454
			-0.339680 -0.132708 -0.931132
			-0.318879  0.031413 -0.947275
			-0.333536  0.069785 -0.940151
			-0.324356 -0.076534 -0.942834
			-0.211867 -0.132345 -0.968296
			-0.061810 -0.135393 -0.988862
			 0.421903 -0.180835 -0.888424
			 0.458603 -0.283527 -0.842197
			 0.623573 -0.284219 -0.728269
			 0.530733 -0.368939 -0.763024
			 0.369588 -0.182984 -0.911000
			 0.350753 -0.161803 -0.922384
			 0.329676 -0.255842 -0.908767
			 0.435729 -0.281459 -0.854939
			 0.468230 -0.020630 -0.883366
			 0.466117 -0.277794 -0.839980
			 0.442394 -0.082173 -0.893048
			 0.330043 -0.065838 -0.941667
			 0.189186 -0.151707 -0.970151
			 0.113239 -0.000520 -0.993568
			 0.017775 -0.031112 -0.999358
			 0.001258  0.043994 -0.999031
			-0.012348 -0.050721 -0.998637
			-0.010940 -0.052111 -0.998581
			-0.019930  0.115946 -0.993055
			-0.057529  0.126566 -0.990289
			-0.074458  0.267200 -0.960760
			-0.107967  0.271137 -0.956467
			-0.106239  0.349406 -0.930929
			-0.107180  0.389374 -0.914823
			-0.123436  0.361215 -0.924277
			-0.098583  0.300932 -0.948537
			-0.121676  0.297767 -0.946852
			-0.408447  0.080644 -0.909213
			-0.262515  0.032766 -0.964372
			-0.208106  0.080970 -0.974749
			-0.624188  0.120891 -0.771864
			-0.192525  0.220092 -0.956292
			-0.619990  0.035387 -0.783812
			-0.708733 -0.077327 -0.701226
			-0.574158 -0.172883 -0.800284
			-0.469564 -0.174728 -0.865436
			 0.489431 -0.855773 -0.167661
			 0.415392 -0.896431 -0.154469
			 0.504878 -0.831571 -0.231489
			 0.469921 -0.829604 -0.301548
			 0.532974 -0.710404 -0.459635
			 0.491333 -0.751719 -0.439897
			 0.564890 -0.514964 -0.644757
			 0.403069 -0.835553 -0.373345
			-0.752808 -0.183068  0.632270
			-0.757047 -0.180073  0.628055
			-0.830394 -0.180673  0.527070
			-0.804958 -0.161762  0.570855
			-0.855207 -0.203265  0.476765
			-0.887925 -0.171300  0.426903
			-0.794089 -0.126800  0.594428
			-0.754118 -0.183697  0.630525
			-0.737916 -0.045859  0.673333
			-0.837251 -0.109002  0.535844
			-0.625455  0.132916  0.768856
			-0.703005  0.078704  0.706817
			-0.552741  0.174170  0.814949
			-0.504911  0.184446  0.843235
			-0.509976  0.108883  0.853270
			-0.503548  0.233795  0.831733
			-0.528143  0.300211  0.794316
			-0.254181  0.057758  0.965430
			-0.284271  0.186513  0.940427
			-0.237809 -0.116352  0.964318
			-0.404228  0.325168  0.854907
			-0.373660  0.204812  0.904671
			-0.505948  0.378707  0.774983
			-0.204575 -0.192915  0.959653
			-0.207143 -0.339567  0.917489
			-0.164176 -0.311834  0.935845
			-0.117382 -0.386304  0.914872
			-0.136638 -0.410871  0.901396
			-0.127268 -0.505184  0.853576
			-0.157593 -0.510421  0.845361
			-0.878162 -0.223078  0.423165
			-0.781593 -0.239698  0.575897
			-0.752864 -0.249463  0.609069
			-0.776763 -0.255786  0.575511
			-0.793994 -0.280761  0.539209
			-0.086682 -0.615005  0.783744
			-0.134842 -0.573001  0.808386
			 0.007759 -0.706181  0.707989
			 0.090087 -0.759447  0.644302
			 0.130309 -0.758802  0.638153
			 0.183229 -0.787162  0.588900
			-0.161038 -0.620390  0.767583
			 0.776969  0.140698  0.613615
			-0.019239 -0.082380  0.996415
			 0.106222 -0.058528  0.992618
			-0.117216 -0.086559  0.989327
			 0.127195 -0.022993  0.991611
			 0.384462  0.038324  0.922345
			 0.088489 -0.022708  0.995818
			 0.239418  0.002793  0.970913
			 0.606348  0.094074  0.789615
			 0.887459  0.181047  0.423837
			 0.900164  0.216535 -0.377912
			 0.764746  0.182779 -0.617864