<?xml version="1.0"?>
<VTKFile type="PolyData" version="0.1" byte_order="LittleEndian" compressor="vtkZLibDataCompressor">
	<PolyData>
		<Piece NumberOfPoints="9691" NumberOfVerts="0" NumberOfLines="0" NumberOfStrips="0" NumberOfPolys="19374">
		<PointData Normals="Normals">
		<DataArray type="Float32" Name="Normals" NumberOfComponents="3" format="ascii">
			 0.214624 -0.921433  0.323880
			 0.277227 -0.943673  0.180627
			 0.455553 -0.860324  0.228725
			 0.004051 -0.962418  0.271542
			 0.046424 -0.786161  0.616276
			 0.484187 -0.709430  0.512126
			 0.277371 -0.697171  0.661074
			 0.009736 -0.999763 -0.019496
			 0.316388 -0.941357 -0.117243
			 0.363124 -0.931709 -0.007756
			 0.652174 -0.755373  0.063886
			 0.716630 -0.573137  0.397435
			-0.086194 -0.989703  0.114278
			-0.240629 -0.830892  0.501713
			-0.314190 -0.942353  0.115127
			-0.096519 -0.813454  0.573565
			-0.318872 -0.453771  0.832113
			-0.030351 -0.476719  0.878532
			 0.444261 -0.582571  0.680620
			 0.604779 -0.489996  0.627810
			 0.339607 -0.399071  0.851710
			-0.120293 -0.971554 -0.203989
			 0.136217 -0.933286 -0.332298
			 0.193557 -0.939734 -0.281845
			 0.282785 -0.946497 -0.155485
			 0.424213 -0.878273 -0.220635
			 0.509512 -0.856527 -0.082210
			 0.676653 -0.727145  0.115763
			 0.596380 -0.781565 -0.182993
			 0.727700 -0.623332  0.286200
			 0.713295 -0.409530  0.568767
			 0.707910 -0.494370  0.504442
			-0.493332 -0.779320  0.386373
			-0.112982 -0.993455  0.016795
			-0.335072 -0.941956 -0.021116
			-0.504899 -0.437249  0.744238
			-0.276711 -0.295009  0.914550
			-0.468884 -0.349272  0.811269
			 0.014622 -0.223806  0.974524
			 0.601294 -0.286559  0.745875
			 0.334429 -0.163651  0.928103
			 0.065507 -0.919513 -0.387562
			-0.152641 -0.961340 -0.229187
			-0.027353 -0.929611 -0.367526
			 0.295343 -0.871138 -0.392290
			 0.184384 -0.837487 -0.514411
			 0.440585 -0.812322 -0.382123
			 0.525864 -0.793354  0.306686
			 0.501536 -0.855676  0.127593
			 0.485834 -0.861064 -0.150114
			 0.601947 -0.651180  0.462196
			 0.660972 -0.341784  0.668057
			 0.564778 -0.478283  0.672511
			-0.715906 -0.665877  0.209969
			-0.643049 -0.429610  0.633974
			-0.443232 -0.858385 -0.258302
			-0.585631 -0.806098 -0.085097
			-0.147939 -0.196844  0.969209
			-0.398288 -0.274501  0.875223
			-0.569706 -0.372315  0.732678
			 0.087036 -0.151638  0.984597
			 0.525754 -0.246181  0.814235
			 0.317870 -0.205372  0.925625
			 0.092602 -0.798633 -0.594651
			-0.050438 -0.817265 -0.574051
			-0.181763 -0.865566 -0.466645
			 0.259631 -0.812594 -0.521807
			 0.147642 -0.771334 -0.619068
			 0.329807 -0.857864 -0.394077
			 0.395846 -0.879025  0.265745
			 0.394520 -0.775593  0.492757
			 0.348729 -0.937089  0.015894
			 0.213236 -0.937416 -0.275284
			 0.403705 -0.582831  0.705217
			 0.515915 -0.328078  0.791326
			 0.454740 -0.425660  0.782320
			-0.702852 -0.500051  0.505913
			-0.681599 -0.726078  0.090736
			-0.329834 -0.827993 -0.453472
			-0.536689 -0.801194 -0.264677
			 0.040227 -0.188985  0.981156
			-0.095988 -0.213980  0.972110
			-0.246519 -0.255489  0.934855
			-0.470485 -0.263612  0.842112
			-0.529374 -0.306020  0.791274
			-0.388940 -0.239119  0.889690
			-0.623377 -0.322970  0.712104
			-0.685672 -0.393896  0.612128
			 0.179983 -0.225672  0.957433
			 0.409007 -0.260580  0.874535
			 0.011471 -0.748326 -0.663232
			-0.206319 -0.771204 -0.602227
			-0.102832 -0.741904 -0.662573
			 0.147461 -0.788224 -0.597460
			 0.163468 -0.849296 -0.501971
			 0.050564 -0.754459 -0.654397
			 0.316616 -0.936354  0.151644
			 0.338859 -0.866850  0.365713
			 0.273089 -0.828715  0.488522
			 0.266782 -0.692654  0.670117
			 0.203133 -0.977468 -0.057388
			 0.048663 -0.893954 -0.445509
			 0.105619 -0.961537 -0.253557
			 0.254963 -0.576295  0.776452
			 0.310829 -0.410112  0.857434
			 0.439989 -0.267364  0.857279
			 0.413992 -0.192623  0.889667
			-0.714030 -0.543609  0.441192
			-0.690544 -0.717962  0.087630
			-0.380228 -0.764103 -0.521128
			-0.574233 -0.773205 -0.269090
			-0.050116 -0.169760  0.984210
			 0.063666 -0.166651  0.983958
			-0.227759 -0.202661  0.952394
			-0.529609 -0.261483  0.806934
			-0.609129 -0.282927  0.740888
			-0.463209 -0.222906  0.857759
			-0.345382 -0.178578  0.921315
			-0.703474 -0.311956  0.638599
			-0.763523 -0.393145  0.512317
			 0.286044 -0.165211  0.943867
			 0.124235 -0.186244  0.974617
			-0.038601 -0.740132 -0.671352
			-0.225285 -0.739937 -0.633830
			-0.121197 -0.741266 -0.660179
			 0.085352 -0.786090 -0.612191
			 0.041642 -0.806030 -0.590407
			 0.051282 -0.754796 -0.653952
			 0.004537 -0.740463 -0.672082
			-0.063049 -0.733453 -0.676810
			 0.218415 -0.969582 -0.110483
			 0.332080 -0.933358 -0.136260
			 0.336397 -0.940771  0.042260
			 0.296297 -0.911150  0.286380
			 0.272183 -0.862639  0.426346
			 0.262333 -0.776598  0.572780
			 0.288476 -0.689263  0.664604
			 0.261438 -0.592441  0.762013
			 0.099508 -0.921395 -0.375672
			 0.072842 -0.815638 -0.573959
			 0.224950 -0.481883  0.846869
			 0.215157 -0.371378  0.903209
			 0.220874 -0.261520  0.939586
			 0.333861 -0.168777  0.927389
			 0.385417 -0.129865  0.913558
			 0.316785 -0.052720  0.947031
			-0.776314 -0.565904  0.277650
			-0.695070 -0.718095 -0.034897
			-0.507023 -0.725397 -0.465541
			-0.351499 -0.725231 -0.592021
			-0.662221 -0.705814 -0.251575
			-0.177819 -0.149996  0.972565
			-0.033222 -0.116020  0.992691
			 0.094282 -0.091128  0.991366
			 0.193616 -0.085463  0.977348
			-0.559786 -0.227885  0.796686
			-0.642406 -0.274985  0.715330
			-0.458142 -0.166205  0.873202
			-0.258506 -0.128134  0.957474
			-0.367861 -0.116451  0.922560
			-0.796020 -0.336197  0.503312
			-0.735522 -0.296597  0.609129
			-0.844051 -0.417238  0.336883
			-0.246143 -0.716431 -0.652794
			-0.166812 -0.714743 -0.679203
			 0.060908 -0.737367 -0.672741
			 0.074292 -0.742163 -0.666089
			 0.045470 -0.734692 -0.676875
			 0.024164 -0.729622 -0.683423
			-0.045103 -0.741350 -0.669601
			-0.204106 -0.728895 -0.653492
			 0.216682 -0.877854 -0.427109
			 0.361961 -0.889003 -0.280461
			 0.305498 -0.819109 -0.485522
			 0.397212 -0.914994 -0.070772
			 0.363859 -0.917509  0.160572
			 0.365217 -0.910509 -0.193880
			 0.321529 -0.874163  0.363947
			 0.312052 -0.790024  0.527717
			 0.344285 -0.712542  0.611352
			 0.366146 -0.618150  0.695577
			 0.374748 -0.550825  0.745758
			 0.299965 -0.437827  0.847542
			 0.189439 -0.734810 -0.651281
			 0.220184 -0.345696  0.912148
			 0.240990 -0.218271  0.945665
			 0.226736 -0.127433  0.965584
			 0.239679 -0.100331  0.965654
			 0.286149 -0.060728  0.956259
			 0.285736 -0.003941  0.958300
			 0.201112 -0.041947  0.978670
			-0.810808 -0.585229  0.009924
			-0.519567 -0.647961 -0.556953
			-0.702480 -0.613245 -0.361182
			-0.396163 -0.663459 -0.634725
			-0.132450 -0.096158  0.986514
			 0.022783 -0.073751  0.997016
			-0.555798 -0.168307  0.814102
			-0.642496 -0.179508  0.744967
			-0.688458 -0.231532  0.687327
			-0.746124 -0.253134  0.615810
			-0.533708 -0.106751  0.838904
			-0.463040 -0.060699  0.884256
			-0.255639 -0.056091  0.965144
			-0.395556 -0.017017  0.918284
			-0.877623 -0.294036  0.378577
			-0.861180 -0.339691  0.378126
			-0.875164 -0.358346  0.325080
			-0.818200 -0.279885  0.502208
			-0.908548 -0.381482  0.170328
			-0.296877 -0.668640 -0.681751
			 0.080142 -0.711933 -0.697660
			 0.130216 -0.674426 -0.726769
			 0.131063 -0.671605 -0.729225
			 0.040325 -0.707065 -0.705998
			 0.080733 -0.684676 -0.724363
			-0.101352 -0.772256 -0.627175
			-0.021910 -0.768055 -0.640009
			 0.069808 -0.723424 -0.686866
			-0.192671 -0.784681 -0.589197
			-0.452857 -0.670435 -0.587740
			-0.353582 -0.767895 -0.534150
			 0.391085 -0.814965 -0.427650
			 0.353758 -0.770973 -0.529581
			 0.292034 -0.685858 -0.666569
			 0.482210 -0.850822 -0.208748
			 0.472162 -0.881472 -0.008347
			 0.425625 -0.859011 -0.284505
			 0.516430 -0.845826  0.133713
			 0.419212 -0.851854  0.314017
			 0.358458 -0.786798  0.502450
			 0.439546 -0.657237  0.612241
			 0.563970 -0.523496  0.638663
			 0.484704 -0.385420  0.785184
			 0.420850 -0.252565  0.871261
			 0.315004 -0.255269  0.914117
			 0.218672 -0.645824 -0.731501
			 0.314441 -0.118951  0.941795
			 0.282510 -0.023178  0.958984
			 0.236298 -0.009683  0.971632
			 0.242804 -0.020980  0.969848
			 0.240908  0.059173  0.968742
			 0.258257  0.086887  0.962161
			 0.216488  0.018043  0.976119
			 0.081171 -0.028434  0.996294
			-0.870796 -0.452526 -0.192181
			-0.909282 -0.416156  0.004517
			-0.577235 -0.577852 -0.576963
			-0.691152 -0.516351 -0.505658
			-0.813536 -0.450939 -0.367168
			-0.070550 -0.054585  0.996014
			-0.649951 -0.083381  0.755389
			-0.749709 -0.125541  0.649751
			-0.747962 -0.185603  0.637263
			-0.809740 -0.211494  0.547349
			-0.541735 -0.010016  0.840489
			-0.480961  0.049656  0.875335
			-0.324208  0.032195  0.945438
			-0.432547  0.047828  0.900342
			-0.142499  0.012006  0.989722
			-0.928842 -0.313618  0.197223
			-0.929983 -0.248675  0.270727
			-0.885104 -0.225220  0.407268
			-0.950817 -0.306548 -0.044456
			 0.138473 -0.638906 -0.756720
			 0.211824 -0.601106 -0.770586
			 0.195121 -0.600185 -0.775697
			 0.139535 -0.634536 -0.760194
			 0.136465 -0.607216 -0.782730
			-0.097669 -0.805947 -0.583875
			 0.062614 -0.764887 -0.641114
			 0.202976 -0.651222 -0.731239
			-0.269500 -0.796835 -0.540762
			-0.639738 -0.584340 -0.499281
			-0.514184 -0.717497 -0.469907
			-0.658982 -0.642674 -0.390785
			-0.386406 -0.786078 -0.482464
			-0.495037 -0.735113 -0.463192
			 0.417966 -0.798818 -0.432660
			 0.357674 -0.702104 -0.615727
			 0.260234 -0.618909 -0.741101
			 0.300575 -0.622006 -0.723024
			 0.499635 -0.826674 -0.258796
			 0.552666 -0.831842 -0.050986
			 0.628813 -0.757497  0.175479
			 0.587437 -0.749634  0.304905
			 0.478437 -0.743179  0.467743
			 0.608426 -0.617061  0.499052
			 0.724423 -0.492970  0.481863
			 0.766293 -0.398053  0.504329
			 0.697271 -0.279152  0.660218
			 0.555174 -0.167676  0.814657
			 0.406389 -0.150601  0.901203
			 0.375272 -0.054645  0.925303
			 0.366915 -0.006054  0.930235
			 0.311066  0.030760  0.949890
			 0.245667  0.023909  0.969059
			 0.254366  0.058171  0.965357
			 0.209688  0.138943  0.967846
			 0.222700  0.143560  0.964259
			 0.245751  0.119633  0.961922
			 0.184030  0.171618  0.967822
			 0.194201  0.104644  0.975364
			 0.111779  0.051314  0.992407
			-0.008334  0.032795  0.999427
			-0.913278 -0.327308 -0.242474
			-0.715515 -0.500021 -0.487870
			-0.840798 -0.387950 -0.377563
			-0.754102 -0.061279  0.653893
			-0.650359  0.033491  0.758888
			-0.781614  0.010683  0.623671
			-0.866281 -0.121665  0.484515
			-0.824736 -0.059981  0.562328
			-0.888722 -0.167558  0.426729
			-0.522967  0.087059  0.847895
			-0.515846  0.146634  0.844039
			-0.474128  0.122298  0.871921
			-0.319802  0.122423  0.939542
			-0.131496  0.126324  0.983235
			-0.956906 -0.263137  0.122840
			-0.973983 -0.165699  0.154597
			-0.943448 -0.155080  0.293012
			-0.924744 -0.302803 -0.230563
			-0.964451 -0.263779 -0.015949
			-0.944196 -0.288581 -0.158789
			 0.193259 -0.533304 -0.823552
			 0.281740 -0.533360 -0.797590
			 0.239708 -0.517842 -0.821206
			 0.248564 -0.585047 -0.771969
			 0.234468 -0.527356 -0.816652
			 0.248913 -0.537803 -0.805488
			-0.215492 -0.792783 -0.570139
			-0.113798 -0.802109 -0.586235
			 0.019609 -0.709560 -0.704373
			 0.097878 -0.682659 -0.724152
			 0.148926 -0.574211 -0.805048
			 0.249625 -0.512535 -0.821581
			-0.417960 -0.775204 -0.473676
			-0.336221 -0.701289 -0.628609
			-0.469974 -0.685308 -0.556308
			-0.794830 -0.486735 -0.362402
			-0.620950 -0.656175 -0.428785
			-0.733241 -0.583415 -0.349263
			-0.813335 -0.524178 -0.252436
			-0.632937 -0.622543 -0.460252
			-0.586151 -0.666152 -0.461160
			 0.398125 -0.803990 -0.441697
			 0.342633 -0.725253 -0.597169
			 0.317662 -0.617318 -0.719728
			 0.258135 -0.529899 -0.807820
			 0.540655 -0.807977 -0.234232
			 0.618427 -0.774108 -0.135298
			 0.631617 -0.772118  0.069961
			 0.754333 -0.602165  0.261493
			 0.715045 -0.605958  0.348606
			 0.805611 -0.456590  0.377513
			 0.851878 -0.338565  0.399597
			 0.843996 -0.251316  0.473825
			 0.811021 -0.213249  0.544765
			 0.809715 -0.096061  0.578907
			 0.721244 -0.123911  0.681508
			 0.502855 -0.108694  0.857510
			 0.602910 -0.099725  0.791552
			 0.470467 -0.063494  0.880130
			 0.487767  0.006925  0.872946
			 0.409469  0.063536  0.910109
			 0.336754  0.106137  0.935592
			 0.167472  0.229158  0.958874
			 0.177681  0.214155  0.960503
			 0.208491  0.200464  0.957259
			 0.332881  0.155259  0.930099
			 0.276499  0.174844  0.944975
			 0.061244  0.131061  0.989481
			 0.073378  0.227745  0.970952
			-0.898371 -0.349962 -0.265434
			-0.635252  0.158467  0.755872
			-0.784325  0.128352  0.606926
			-0.890392  0.010310  0.455079
			-0.884332  0.081657  0.459661
			-0.955797 -0.068480  0.285940
			-0.904736 -0.105348  0.412741
			-0.962307  0.007181  0.271871
			-0.868043 -0.050652  0.493898
			-0.541431  0.189290  0.819160
			-0.624671  0.232057  0.745611
			-0.466495  0.179261  0.866169
			-0.326875  0.204713  0.922630
			-0.193101  0.215097  0.957311
			-0.046296  0.191239  0.980451
			-0.983597 -0.176982  0.034854
			-0.994409 -0.096295  0.043337
			-0.988431 -0.075753  0.131397
			-0.968843 -0.234895 -0.078530
			-0.952986 -0.272552 -0.132413
			 0.276774 -0.451358 -0.848335
			 0.281870 -0.393497 -0.875048
			 0.240741 -0.455405 -0.857117
			 0.340752 -0.405753 -0.848088
			 0.313549 -0.462197 -0.829494
			 0.249015 -0.394849 -0.884356
			 0.275825 -0.422957 -0.863150
			-0.328776 -0.702768 -0.630891
			-0.076388 -0.704813 -0.705269
			-0.318858 -0.704597 -0.633935
			-0.260707 -0.660510 -0.704101
			-0.031970 -0.558237 -0.829065
			-0.170926 -0.574248 -0.800640
			 0.108182 -0.449148 -0.886884
			 0.211409 -0.395902 -0.893626
			-0.445106 -0.577203 -0.684629
			-0.499949 -0.577675 -0.645246
			-0.628584 -0.581662 -0.516286
			-0.892275 -0.406073 -0.197357
			-0.711680 -0.546477 -0.441446
			-0.781951 -0.507730 -0.361611
			-0.906253 -0.389668 -0.163907
			-0.852533 -0.439803 -0.282421
			-0.716308 -0.542179 -0.439254
			 0.328839 -0.693605 -0.640919
			 0.375352 -0.815519 -0.440499
			 0.401171 -0.572993 -0.714661
			 0.295664 -0.524028 -0.798735
			 0.345540 -0.483321 -0.804365
			 0.263628 -0.422493 -0.867179
			 0.462341 -0.762138 -0.453196
			 0.615142 -0.721241 -0.318452
			 0.677236 -0.703068 -0.216902
			 0.731275 -0.673764 -0.106203
			 0.724128 -0.686530  0.065692
			 0.765830 -0.642407 -0.028589
			 0.816418 -0.552887  0.166669
			 0.847089 -0.456126  0.272743
			 0.863565 -0.364549  0.348367
			 0.894592 -0.167003  0.414507
			 0.911637 -0.191290  0.363766
			 0.864217 -0.084451  0.495980
			 0.842918 -0.071658  0.533250
			 0.753881 -0.104501  0.648648
			 0.713345 -0.075714  0.696711
			 0.630944 -0.040976  0.774746
			 0.639213  0.040655  0.767954
			 0.590274  0.078023  0.803423
			 0.517162  0.097135  0.850358
			 0.435308  0.120514  0.892179
			 0.426661  0.167528  0.888760
			 0.139429  0.281564  0.949358
			 0.095851  0.279193  0.955439
			 0.113229  0.327914  0.937897
			 0.155008  0.288637  0.944807
			 0.207134  0.283377  0.936372
			 0.277835  0.232571  0.932051
			 0.357451  0.195166  0.913312
			-0.018888  0.283568  0.958766
			-0.081678  0.253238  0.963950
			-0.765284  0.234733  0.599368
			-0.866699  0.196205  0.458624
			-0.927056 -0.064593  0.369317
			-0.933032  0.144053  0.329697
			-0.986249  0.024564  0.163432
			-0.993648  0.004065  0.112459
			-0.973910  0.141854  0.177135
			-0.991675  0.102913  0.077390
			-0.457470  0.209733  0.864137
			-0.552575  0.206354  0.807514
			-0.612619  0.238416  0.753562
			-0.727059  0.280624  0.626606
			-0.319479  0.233410  0.918397
			-0.207376  0.247216  0.946509
			-0.985948 -0.163201 -0.035663
			-0.999127  0.021514  0.035824
			-0.996601 -0.081819  0.009573
			-0.983549 -0.171897 -0.055528
			-0.953969 -0.281626 -0.103104
			-0.987579 -0.150075 -0.046527
			 0.306240 -0.376808 -0.874204
			 0.297718 -0.382176 -0.874817
			 0.331485 -0.341930 -0.879319
			 0.381175 -0.267047 -0.885094
			 0.353589 -0.299537 -0.886145
			 0.347984 -0.359174 -0.865968
			 0.405947 -0.269229 -0.873340
			 0.333537 -0.312682 -0.889372
			 0.275444 -0.250600 -0.928079
			 0.237598 -0.335929 -0.911427
			 0.219961 -0.323388 -0.920346
			 0.279931 -0.295190 -0.913510
			-0.388868 -0.546400 -0.741774
			-0.043366 -0.427447 -0.903000
			-0.216257 -0.491415 -0.843650
			 0.113240 -0.334900 -0.935424
			-0.575293 -0.492219 -0.653268
			-0.467373 -0.514694 -0.718786
			-0.745844 -0.527894 -0.406257
			-0.730837 -0.500396 -0.464200
			-0.599658 -0.553701 -0.577776
			-0.811856 -0.422063 -0.403425
			-0.954135 -0.253500 -0.159264
			-0.908300 -0.314578 -0.275739
			-0.829620 -0.408992 -0.380073
			 0.381769 -0.711844 -0.589517
			 0.457329 -0.597604 -0.658574
			 0.569106 -0.490466 -0.659972
			 0.534462 -0.573913 -0.620463
			 0.427831 -0.426058 -0.797142
			 0.496858 -0.436231 -0.750223
			 0.302480 -0.393137 -0.868302
			 0.435958 -0.332264 -0.836386
			 0.551913 -0.640746 -0.533702
			 0.641589 -0.605016 -0.471508
			 0.698717 -0.662424 -0.270163
			 0.842556 -0.530923  0.090669
			 0.838688 -0.541240  0.060504
			 0.718405 -0.659508 -0.221231
			 0.787855 -0.613131 -0.057915
			 0.907840 -0.309070  0.283377
			 0.907249 -0.376744  0.186985
			 0.913644 -0.065598  0.401189
			 0.951283 -0.128516  0.280256
			 0.939124 -0.069775  0.336418
			 0.872594 -0.059085  0.484860
			 0.847189 -0.038224  0.529915
			 0.768335  0.006217  0.640018
			 0.753684  0.064001  0.654114
			 0.738828  0.039436  0.672739
			 0.689766  0.070851  0.720557
			 0.613799  0.116753  0.780781
			 0.534500  0.162885  0.829324
			 0.442981  0.216271  0.870054
			 0.528547  0.229177  0.817383
			 0.114588  0.351351  0.929205
			 0.025485  0.302221  0.952897
			 0.101488  0.396550  0.912386
			 0.064186  0.382985  0.921522
			 0.023526  0.327207  0.944660
			 0.195693  0.365558  0.909984
			 0.129973  0.367263  0.920991
			 0.280052  0.315087  0.906803
			 0.379524  0.261465  0.887467
			-0.145168  0.273414  0.950879
			-0.109614  0.288604  0.951153
			-0.832821  0.281375  0.476694
			-0.906409  0.246730  0.342851
			-0.950215  0.216136  0.224447
			-0.975929  0.185631  0.114473
			-0.994179  0.104309  0.026992
			-0.985986  0.154905  0.061934
			-0.410989  0.211745  0.886709
			-0.520150  0.199928  0.830345
			-0.679762  0.215089  0.701185
			-0.836126  0.288099  0.466790
			-0.764153  0.270235  0.585699
			-0.263527  0.244003  0.933282
			-0.997137  0.072525  0.021411
			-0.999985 -0.005503  0.000738
			-0.983834 -0.165848 -0.067559
			-0.984592 -0.136169 -0.109707
			-0.999149 -0.026292 -0.031774
			 0.340081 -0.301863 -0.890631
			 0.341370 -0.268858 -0.900656
			 0.399046 -0.201702 -0.894471
			 0.423616 -0.163963 -0.890879
			 0.353500 -0.204107 -0.912895
			 0.322920 -0.216793 -0.921262
			 0.360122 -0.125338 -0.924447
			 0.320199 -0.144754 -0.936226
			 0.353736 -0.281596 -0.891950
			 0.141502 -0.253273 -0.956990
			 0.211160 -0.239204 -0.947730
			 0.242863 -0.178158 -0.953560
			 0.312964 -0.193468 -0.929851
			-0.340415 -0.474940 -0.811511
			-0.214441 -0.430928 -0.876537
			-0.156547 -0.390965 -0.906995
			-0.028264 -0.344091 -0.938511
			 0.027962 -0.272635 -0.961711
			-0.753323 -0.294494 -0.588028
			-0.659597 -0.420322 -0.623107
			-0.703402 -0.409162 -0.581216
			-0.492309 -0.523904 -0.695095
			-0.358194 -0.459652 -0.812661
			-0.843362 -0.355211 -0.403194
			-0.832461 -0.284815 -0.475279
			-0.894246 -0.281620 -0.347872
			-0.949156 -0.191916 -0.249543
			-0.891800 -0.269434 -0.363453
			 0.716482 -0.312982 -0.623455
			 0.716148 -0.307743 -0.626439
			 0.632466 -0.457919 -0.624738
			 0.658856 -0.311397 -0.684793
			 0.638391 -0.631510 -0.440060
			 0.502191 -0.293395 -0.813464
			 0.534289 -0.327856 -0.779131
			 0.663013 -0.229869 -0.712442
			 0.474252 -0.209387 -0.855127
			 0.558807 -0.169727 -0.811744
			 0.907611 -0.409966  0.090391
			 0.783493 -0.577823 -0.228604
			 0.874314 -0.474425 -0.102455
			 0.961544 -0.186697  0.201440
			 0.970105 -0.181085  0.161565
			 0.986221 -0.050200  0.157636
			 0.969218 -0.083812  0.231498
			 0.917277 -0.091744  0.387539
			 0.852869 -0.059286  0.518748
			 0.787379 -0.022553  0.616056
			 0.834850  0.040855  0.548960
			 0.913901  0.137620  0.381899
			 0.739154  0.044383  0.672073
			 0.665152  0.121220  0.736803
			 0.636093  0.188129  0.748327
			 0.588934  0.215023  0.779052
			 0.503866  0.294192  0.812139
			 0.596270  0.281319  0.751879
			 0.585374  0.333477  0.739006
			 0.113002  0.413629  0.903406
			 0.112304  0.387973  0.914803
			 0.047620  0.430333  0.901413
			-0.035820  0.373274  0.927029
			-0.048095  0.332749  0.941788
			 0.145741  0.421591  0.894997
			 0.238018  0.427790  0.871977
			 0.305752  0.395299  0.866172
			 0.374535  0.345686  0.860363
			 0.465599  0.351074  0.812382
			-0.221267  0.320495  0.921045
			-0.266844  0.249066  0.931000
			-0.883180  0.299438  0.361013
			-0.923679  0.273624  0.268230
			-0.958272  0.235108  0.162600
			-0.992373  0.109967  0.055703
			-0.979341  0.138657  0.147194
			-0.366034  0.280293  0.887386
			-0.595638  0.203265  0.777109
			-0.464755  0.291684  0.836016
			-0.614737  0.243752  0.750123
			-0.736555  0.225002  0.637856
			-0.845845  0.224788  0.483753
			-0.915227  0.277230  0.292409
			-0.993539  0.055780  0.098834
			-0.999744  0.007561 -0.021332
			-0.998791 -0.014336 -0.047017
			-0.976801 -0.109518 -0.184028
			 0.377401 -0.210355 -0.901842
			 0.368955 -0.155785 -0.916299
			 0.405562 -0.146573 -0.902239
			 0.456207 -0.139001 -0.878950
			 0.450512 -0.068423 -0.890145
			 0.377618 -0.103208 -0.920192
			 0.464143 -0.151551 -0.872699
			 0.355804 -0.063444 -0.932404
			 0.422361 -0.026311 -0.906046
			 0.477178 -0.093181 -0.873853
			 0.020452 -0.201191 -0.979339
			 0.142271 -0.167756 -0.975508
			 0.223295 -0.141169 -0.964474
			 0.299402 -0.140306 -0.943755
			-0.276230 -0.385310 -0.880473
			-0.138132 -0.326820 -0.934937
			-0.088200 -0.255426 -0.962797
			-0.856260 -0.227791 -0.463606
			-0.791770 -0.289969 -0.537604
			-0.668268 -0.426005 -0.609867
			-0.778487 -0.300289 -0.551166
			-0.534580 -0.441418 -0.720676
			-0.481681 -0.322928 -0.814678
			-0.379230 -0.309529 -0.871996
			-0.892272 -0.220352 -0.394075
			-0.929708 -0.188322 -0.316508
			 0.815152 -0.126889 -0.565179
			 0.782461 -0.192146 -0.592314
			 0.771099 -0.306308 -0.558195
			 0.703134 -0.490839 -0.514471
			 0.780760 -0.518940 -0.348016
			 0.619495 -0.227124 -0.751425
			 0.797580 -0.114566 -0.592233
			 0.618256 -0.097213 -0.779941
			 0.713636 -0.044304 -0.699115
			 0.719277 -0.111304 -0.685750
			 0.975547 -0.204011  0.081776
			 0.971323 -0.224044 -0.079594
			 0.909809 -0.329825 -0.251917
			 0.922573 -0.317854 -0.218696
			 0.998804 -0.044794  0.019614
			 0.999907  0.008237 -0.010895
			 0.997997 -0.052301  0.035584
			 0.999514  0.017452  0.025822
			 0.996996 -0.051464  0.057891
			 0.965632 -0.087603  0.244706
			 0.920254 -0.092808  0.380158
			 0.845203 -0.036613  0.533190
			 0.824702  0.067030  0.561581
			 0.729616  0.155062  0.666045
			 0.654694  0.277142  0.703256
			 0.726440  0.223075  0.650017
			 0.571579  0.410524  0.710470
			 0.633012  0.372283  0.678749
			 0.637165  0.399878  0.658877
			 0.170691  0.428831  0.887112
			 0.206016  0.464736  0.861149
			 0.042475  0.329600  0.943165
			 0.029680  0.404727  0.913956
			 0.210216  0.345856  0.914436
			 0.124396  0.299771  0.945866
			-0.064860  0.436582  0.897323
			-0.045720  0.457315  0.888129
			-0.200742  0.362323  0.910179
			 0.336479  0.451025  0.826655
			 0.346762  0.486770  0.801755
			 0.437141  0.435325  0.787020
			-0.386096  0.344648  0.855656
			-0.952832  0.216338  0.212862
			-0.950183  0.110653  0.291389
			-0.977966  0.027534  0.206941
			-0.520251  0.330437  0.787496
			-0.629360  0.291730  0.720277
			-0.728641  0.294475  0.618359
			-0.804908  0.256252  0.535218
			-0.862317  0.227162  0.452557
			-0.902323  0.185295  0.389203
			-0.937682  0.172193  0.301831
			-0.996888 -0.008943  0.078324
			-0.998615 -0.037673 -0.036715
			-0.989079 -0.067324 -0.131113
			-0.994231 -0.012612 -0.106512
			-0.975923 -0.086623 -0.200175
			 0.379251 -0.179097 -0.907796
			 0.478916 -0.073575 -0.874772
			 0.419468 -0.204816 -0.884362
			 0.403683 -0.163949 -0.900089
			 0.483693 -0.115228 -0.867620
			 0.474656 -0.069373 -0.877433
			 0.455000 -0.029784 -0.889993
			 0.495325 -0.084222 -0.864616
			 0.531419 -0.030052 -0.846576
			 0.494353  0.019309 -0.869047
			 0.485279 -0.029869 -0.873849
			 0.533444  0.005906 -0.845815
			 0.554448  0.053741 -0.830481
			 0.583941 -0.045140 -0.810540
			-0.192469 -0.210136 -0.958540
			-0.000735 -0.164409 -0.986392
			-0.014288 -0.127993 -0.991672
			 0.124060 -0.154880 -0.980113
			 0.214939 -0.169797 -0.961754
			 0.264695 -0.161771 -0.950666
			-0.254984 -0.302878 -0.918285
			-0.882180 -0.224676 -0.413859
			-0.834767 -0.252453 -0.489318
			-0.921119 -0.187471 -0.341167
			-0.685433 -0.293013 -0.666577
			-0.798131 -0.193005 -0.570733
			-0.712793 -0.235563 -0.660633
			-0.566954 -0.240733 -0.787789
			-0.401583 -0.267491 -0.875888
			-0.548809 -0.242969 -0.799859
			 0.886186 -0.021870 -0.462813
			 0.936483 -0.009247 -0.350592
			 0.897489 -0.042587 -0.438976
			 0.888130 -0.129186 -0.441063
			 0.883491 -0.279602 -0.375854
			 0.851410 -0.002029 -0.524496
			 0.778604 -0.000294 -0.627516
			 0.690554  0.013011 -0.723164
			 0.968352 -0.083317 -0.235273
			 0.991707  0.000419 -0.128519
			 0.984075 -0.004169 -0.177705
			 0.985508  0.035442 -0.165886
			 0.993654 -0.029289 -0.108597
			 0.970010 -0.036996  0.240233
			 0.990869  0.034188 -0.130422
			 0.998041  0.050845 -0.036449
			 0.992422  0.020897  0.121088
			 0.913917 -0.041518  0.403772
			 0.911279  0.064204  0.406753
			 0.814099  0.176996  0.553096
			 0.675490  0.377773  0.633246
			 0.747495  0.297883  0.593731
			 0.817966  0.252616  0.516834
			 0.640749  0.449647  0.622301
			 0.547752  0.480174  0.685128
			 0.631174  0.497156  0.595362
			 0.673437  0.443141  0.591700
			 0.314569  0.431034  0.845728
			 0.366685  0.545713  0.753484
			-0.125589  0.388473  0.912861
			-0.084673  0.245277  0.965748
			 0.066860  0.218516  0.973540
			 0.259063  0.194171  0.946141
			-0.204185  0.442642  0.873142
			-0.152158  0.483880  0.861805
			-0.205829  0.489182  0.847547
			-0.343393  0.410458  0.844752
			 0.454740  0.490966  0.743077
			 0.427595  0.545263  0.721006
			 0.524538  0.505722  0.684912
			-0.500171  0.437962  0.747006
			-0.935817  0.037694  0.350466
			-0.926821  0.004835  0.375472
			-0.951571  0.042743  0.304444
			-0.974146  0.043971  0.221597
			-0.991029 -0.020619  0.132045
			-0.992757 -0.016035  0.119062
			-0.634668  0.371112  0.677844
			-0.760061  0.339067  0.554383
			-0.840826  0.274635  0.466462
			-0.920056  0.129989  0.369595
			-0.874677  0.256517  0.411266
			-0.998993 -0.044858  0.001268
			-0.991230 -0.063277 -0.116012
			-0.960453 -0.107531 -0.256841
			-0.968968 -0.079117 -0.234183
			 0.346512 -0.182619 -0.920098
			 0.286079 -0.209550 -0.935012
			 0.341132 -0.099589 -0.934725
			 0.424183 -0.109446 -0.898938
			 0.280039 -0.222661 -0.933809
			 0.486184 -0.054557 -0.872152
			 0.503242 -0.074455 -0.860932
			 0.520409 -0.045763 -0.852690
			 0.554995 -0.040174 -0.830883
			 0.627793  0.030761 -0.777772
			 0.594641  0.108209 -0.796676
			 0.583863  0.023789 -0.811504
			 0.580689  0.030988 -0.813535
			 0.540689  0.102859 -0.834911
			 0.590783  0.050363 -0.805257
			 0.621315  0.042205 -0.782424
			 0.734269  0.113963 -0.669225
			 0.646985  0.105042 -0.755233
			-0.412535 -0.195188 -0.889785
			-0.188530 -0.153868 -0.969939
			-0.077420 -0.105523 -0.991398
			-0.184532 -0.072501 -0.980149
			-0.048133 -0.138011 -0.989260
			 0.081621 -0.162027 -0.983405
			 0.210741 -0.237129 -0.948345
			 0.239909 -0.197729 -0.950446
			-0.864087 -0.174732 -0.472041
			-0.917548 -0.145165 -0.370178
			-0.703652 -0.128158 -0.698891
			-0.666386 -0.187710 -0.721592
			-0.825121 -0.097605 -0.556461
			-0.535468 -0.211530 -0.817637
			 0.934912  0.033759 -0.353271
			 0.870995  0.048870 -0.488855
			 0.925293 -0.013896 -0.378998
			 0.807882  0.095820 -0.581502
			 0.737458  0.101740 -0.667686
			 0.964229 -0.021118 -0.264226
			 0.968604  0.034680 -0.246179
			 0.966315  0.078229  0.245185
			 0.966104  0.098743 -0.238524
			 0.981595  0.106495 -0.158523
			 0.988544  0.122608  0.088027
			 0.897064  0.171521  0.407255
			 0.735157  0.391466  0.553442
			 0.803369  0.338175  0.490138
			 0.890632  0.233577  0.390150
			 0.884229  0.273015  0.378949
			 0.677709  0.496973  0.541967
			 0.552092  0.522861  0.649469
			 0.674988  0.550942  0.490770
			 0.610287  0.540578  0.579072
			 0.757676  0.440651  0.481409
			 0.735615  0.477821  0.480164
			 0.477355  0.474601  0.739517
			 0.468420  0.319186  0.823834
			 0.503649  0.593483  0.627787
			 0.558334  0.548233  0.622659
			-0.263217  0.299258  0.917149
			-0.367953  0.398132  0.840299
			-0.030068  0.127719  0.991355
			-0.266311  0.164560  0.949736
			 0.110896  0.133862  0.984776
			 0.443211  0.192200  0.875570
			 0.263535  0.075197  0.961714
			 0.122037  0.050790  0.991225
			 0.440067  0.092858  0.893151
			-0.314204  0.468565  0.825665
			-0.314461  0.497602  0.808397
			-0.391309  0.484723  0.782253
			 0.555057  0.527605  0.643074
			 0.626452  0.552286  0.550034
			-0.684536  0.396823  0.611508
			-0.689660  0.380101  0.616354
			-0.520716  0.441222  0.730875
			-0.923522  0.072887  0.376557
			-0.940342  0.141143  0.309575
			-0.952688  0.144938  0.267166
			-0.988446  0.040045  0.146185
			-0.990864 -0.027840  0.131963
			-0.980276  0.124616  0.153396
			-0.962398  0.138062  0.233943
			-0.998401 -0.054761  0.014023
			-0.794887  0.348555  0.496652
			-0.896576  0.225114  0.381412
			-0.850695  0.308480  0.425627
			-0.992290 -0.075940 -0.097947