<?xml version="1.0"?>
<VTKFile type="PolyData" version="0.1" byte_order="LittleEndian" compressor="vtkZLibDataCompressor">
	<PolyData>
		<Piece NumberOfPoints="1501" NumberOfVerts="0" NumberOfLines="0" NumberOfStrips="0" NumberOfPolys="2998">
		<PointData Normals="Normals">
		<DataArray type="Float32" Name="Normals" NumberOfComponents="3" format="ascii">
			 0.026863 -0.897767  0.439651
			-0.362418 -0.781043  0.508551
			-0.143554 -0.916064  0.374458
			 0.197470 -0.938236  0.284110
			 0.458987 -0.827910  0.322330
			 0.265041 -0.835776  0.480865
			-0.010327 -0.859528  0.510984
			-0.250216 -0.815933  0.521196
			-0.188127 -0.846256  0.498456
			-0.537263 -0.728928  0.424278
			-0.457988 -0.759470  0.462009
			-0.583618 -0.688979  0.429765
			-0.499101 -0.750977  0.432357
			-0.088345 -0.940250  0.328825
			 0.308171 -0.915806  0.257544
			 0.563738 -0.802630  0.194897
			 0.723356 -0.615219  0.313466
			 0.767553 -0.592830  0.243752
			 0.233595 -0.837656  0.493726
			 0.460948 -0.740845  0.488544
			 0.122229 -0.886097  0.447093
			 0.121834 -0.878052  0.462797
			-0.119054 -0.849940  0.513252
			-0.015661 -0.879625  0.475410
			-0.362093 -0.802732  0.473825
			-0.247575 -0.852685  0.460037
			-0.324497 -0.824973  0.462731
			-0.411671 -0.782030  0.467928
			-0.362179 -0.865142  0.346923
			-0.677036 -0.656612  0.332389
			-0.796792 -0.436124  0.418233
			-0.747212 -0.520789  0.412861
			-0.703355 -0.583163  0.406464
			-0.513684 -0.758920  0.400211
			-0.626540 -0.680631  0.379721
			-0.056150 -0.956175  0.287363
			 0.709605 -0.678169  0.191173
			 0.487066 -0.848678  0.206185
			 0.195611 -0.954672  0.224363
			 0.864979 -0.463270  0.192850
			 0.927253 -0.257632  0.271713
			 0.795293 -0.429885  0.427443
			 0.919329 -0.301051  0.253384
			 0.604355 -0.635776  0.480149
			 0.299010 -0.815882  0.494903
			 0.169826 -0.865598  0.471062
			 0.464223 -0.716624  0.520525
			 0.554205 -0.625258  0.549463
			 0.507204 -0.662481  0.551237
			-0.089158 -0.872329  0.480722
			-0.429595 -0.787289  0.442294
			-0.329210 -0.839127  0.432997
			-0.499250 -0.780833  0.375565
			-0.413172 -0.870150  0.268567
			-0.873047 -0.417476  0.251997
			-0.785322 -0.587148  0.196283
			-0.928738 -0.256551  0.267635
			-0.872954 -0.326914  0.362047
			-0.826721 -0.414547  0.380373
			-0.789475 -0.528640  0.311880
			-0.708628 -0.655670  0.260658
			-0.024585 -0.979208  0.201362
			 0.902527 -0.392050  0.178164
			 0.727492 -0.675951  0.117670
			 0.912742 -0.379242  0.151913
			 0.232137 -0.969124  0.083138
			 0.459394 -0.885432  0.070474
			 0.947070 -0.235881  0.217756
			 0.957051 -0.208763  0.201177
			 0.874231 -0.298238  0.383111
			 0.922120 -0.212722  0.323178
			 0.955375 -0.156616  0.250459
			 0.962510 -0.121938  0.242291
			 0.751702 -0.389821  0.531963
			 0.695675 -0.484881  0.530025
			 0.640537 -0.574402  0.509681
			 0.388291 -0.746501  0.540340
			 0.252418 -0.801574  0.542001
			 0.153463 -0.829577  0.536891
			-0.090823 -0.855666  0.509496
			-0.223151 -0.855962  0.466404
			-0.351631 -0.803727  0.479978
			-0.464101 -0.783080  0.413999
			-0.550634 -0.749837  0.366807
			-0.173309 -0.821667  0.542979
			-0.205655 -0.965684  0.158618
			-0.523407 -0.842794  0.125477
			-0.941589 -0.323742  0.092741
			-0.756424 -0.653552  0.026314
			-0.877701 -0.479205  0.001896
			-0.956053 -0.189848  0.223427
			-0.977026 -0.197497  0.080094
			-0.921037 -0.239549  0.307095
			-0.859766 -0.431058  0.273845
			-0.907807 -0.311279  0.281055
			-0.834736 -0.515456  0.193704
			-0.750582 -0.609488  0.255247
			-0.791925 -0.578505  0.195416
			 0.079843 -0.995152  0.057420
			 0.963557 -0.214745  0.159511
			 0.528255 -0.842040 -0.109153
			 0.555749 -0.781859 -0.282559
			 0.916655 -0.396253  0.052225
			 0.759975 -0.637795 -0.125123
			 0.973358 -0.202578  0.107410
			 0.970826 -0.236793 -0.037770
			 0.305360 -0.942654 -0.134758
			 0.972453 -0.150197  0.178261
			 0.966254 -0.127310  0.223933
			 0.779763 -0.444371  0.441026
			 0.850416 -0.332805  0.407473
			 0.942044 -0.198725  0.270298
			 0.913121 -0.257154  0.316358
			 0.804130 -0.394319  0.444846
			 0.950017 -0.212919  0.228326
			 0.969241 -0.129358  0.209377
			 0.965641 -0.186038  0.181457
			 0.960279 -0.103666  0.259072
			 0.716545 -0.482255  0.503978
			 0.748934 -0.454105  0.482584
			 0.415207 -0.727233  0.546567
			 0.644510 -0.559027  0.521628
			 0.333228 -0.763471  0.553236
			 0.334233 -0.747825  0.573626
			 0.185624 -0.792465  0.580985
			 0.066626 -0.818065  0.571254
			-0.393573 -0.748123  0.534240
			-0.624907 -0.655183  0.424530
			-0.524834 -0.704784  0.477314
			 0.074775 -0.800276  0.594951
			-0.184985 -0.749752  0.635337
			 0.009417 -0.753772  0.657069
			-0.237557 -0.971081 -0.023832
			-0.585379 -0.807854 -0.068584
			-0.946247 -0.323383 -0.006288
			-0.973114 -0.230072 -0.010789
			-0.805417 -0.591155 -0.042893
			-0.918392 -0.394078 -0.035487
			-0.978801 -0.132453  0.156219
			-0.964976 -0.161542  0.206703
			-0.989928 -0.131876  0.051486
			-0.945943 -0.253037  0.202890
			-0.964793 -0.172624  0.198435
			-0.987932 -0.143917 -0.057246
			-0.983126 -0.165462 -0.078015
			-0.913067 -0.377134  0.155175
			-0.865215 -0.474104  0.163183
			-0.775722 -0.526003  0.348677
			-0.843313 -0.487602  0.225979
			 0.083687 -0.994745 -0.058987
			 0.979361 -0.147190  0.138516
			 0.439160 -0.839536 -0.319871
			 0.653511 -0.639051 -0.405632
			 0.825672 -0.483168 -0.291229
			 0.987904 -0.152441  0.028425
			 0.874108 -0.363882 -0.321755
			 0.966536 -0.191482 -0.170712
			 0.195473 -0.961951 -0.190897
			 0.973063 -0.136664  0.185663
			 0.965661 -0.113911  0.233502
			 0.925743 -0.255745  0.278559
			 0.880870 -0.313427  0.354729
			 0.802613 -0.401935  0.440750
			 0.693934 -0.532126  0.485075
			 0.566231 -0.616509  0.547082
			 0.604613 -0.591743  0.533182
			 0.944691 -0.210388  0.251588
			 0.963192 -0.207527  0.170861
			 0.963301 -0.155632  0.218703
			 0.970178 -0.187849  0.153191
			 0.458795 -0.685815  0.564947
			 0.291230 -0.747439  0.597093
			-0.452389 -0.643332  0.617631
			-0.238167 -0.661003  0.711584
			-0.593450 -0.553605  0.584242
			-0.686217 -0.553293  0.472201
			 0.248928 -0.734733  0.631032
			-0.085803 -0.666532  0.740522
			 0.248531 -0.705797  0.663388
			 0.132694 -0.664824  0.735120
			-0.158402 -0.981917 -0.103672
			-0.358706 -0.928430 -0.096682
			-0.640939 -0.755418 -0.136162
			-0.966369 -0.252133 -0.050588
			-0.835811 -0.539809 -0.100130
			-0.923557 -0.378029 -0.064311
			-0.988959 -0.132069  0.067210
			-0.938434 -0.320218  0.129622
			-0.948040 -0.268881  0.170068
			-0.958972 -0.208371  0.192236
			-0.959141 -0.196429  0.203627
			-0.959400 -0.184144  0.213642
			-0.989772 -0.100348 -0.101399
			-0.989005 -0.137192 -0.055209
			-0.947131 -0.294450  0.127444
			-0.969912 -0.195702  0.144812
			-0.970236 -0.152677  0.187966
			-0.959081 -0.176450  0.221425
			-0.983470 -0.108602 -0.144890
			-0.993028 -0.089843 -0.076318
			-0.985903 -0.159449 -0.050704
			-0.918187 -0.363462  0.157567
			-0.734502 -0.447110  0.510489
			-0.869697 -0.371702  0.324753
			 0.989707 -0.134519  0.048830
			 0.986498 -0.148473  0.069124
			 0.236763 -0.911246 -0.337007
			 0.340799 -0.812715 -0.472599
			 0.549883 -0.710550 -0.439029
			 0.740484 -0.520849 -0.424735
			 0.988310 -0.130311 -0.079137
			 0.896538 -0.277405 -0.345349
			 0.955110 -0.131270 -0.265579
			-0.043422 -0.982429 -0.181516
			 0.977593 -0.100574  0.184925
			 0.968152 -0.170525  0.183312
			 0.984506 -0.013672  0.174819
			 0.981711 -0.067545  0.177995
			 0.908321 -0.235135  0.345925
			 0.864866 -0.321064  0.385907
			 0.723912 -0.474309  0.500981
			 0.497057 -0.634251  0.592165
			 0.967113 -0.161620  0.196393
			 0.952961 -0.143582  0.266926
			 0.927272 -0.166318  0.335419
			 0.973231 -0.168901  0.155863
			-0.465992 -0.536743  0.703390
			-0.306397 -0.550262  0.776745
			-0.183134 -0.559359  0.808443
			-0.580104 -0.388048  0.716169
			 0.109857 -0.632910  0.766392
			-0.042046 -0.567456  0.822330
			 0.292977 -0.658151  0.693542
			 0.445550 -0.619302  0.646490
			 0.377396 -0.592554  0.711654
			-0.372527 -0.911606 -0.173779
			-0.715688 -0.662023 -0.222520
			-0.501102 -0.818293 -0.281590
			-0.972170 -0.228221 -0.052921
			-0.942932 -0.320312 -0.090994
			-0.858834 -0.486199 -0.161289
			-0.969297 -0.245196  0.018481
			-0.908471 -0.385453  0.161575
			-0.887837 -0.456769  0.055745
			-0.840115 -0.523960  0.140258
			-0.885663 -0.422724  0.192110
			-0.928658 -0.321996  0.184155
			-0.936807 -0.259984  0.234098
			-0.981468 -0.151087 -0.117874
			-0.957178 -0.289077 -0.015648
			-0.958601 -0.251573  0.133400
			-0.967478 -0.166427  0.190495
			-0.946216 -0.144904  0.289271
			-0.952408 -0.149691  0.265540
			-0.936230 -0.220017  0.273981
			-0.945118 -0.159370  0.285224
			-0.942551 -0.155464  0.295682
			-0.986790 -0.127243 -0.100272
			-0.992894 -0.118087 -0.014729
			-0.991226 -0.131653  0.011780
			-0.944956 -0.250527  0.210462
			-0.755631 -0.317475  0.572914
			-0.818275 -0.346458  0.458686
			-0.854583 -0.226492  0.467322
			-0.913802 -0.214925  0.344636
			 0.989312 -0.116880 -0.087180
			 0.992272 -0.092952  0.082193
			 0.991351 -0.086317 -0.098861
			 0.013430 -0.929907 -0.367551
			 0.080677 -0.844645 -0.529213
			 0.414414 -0.735089 -0.536567
			 0.199839 -0.782403 -0.589840
			 0.581917 -0.643548 -0.497211
			 0.658280 -0.551673 -0.512176
			 0.808681 -0.388182 -0.441985
			 0.879705 -0.216936 -0.423153
			 0.959702 -0.076765 -0.270330
			 0.905663 -0.099261 -0.412216
			-0.237602 -0.929019 -0.283670
			 0.978586 -0.102682  0.178397
			 0.998098  0.018159  0.058909
			 0.990346  0.115974  0.075921
			 0.989662  0.038313  0.138210
			 0.990331  0.031060  0.135204
			 0.985916 -0.027276  0.165001
			 0.883334 -0.199782  0.424038
			 0.853243 -0.256058  0.454325
			 0.824413 -0.311802  0.472359
			 0.794250 -0.375210  0.477896
			 0.583935 -0.539114  0.606940
			 0.651617 -0.456875  0.605525
			 0.975428 -0.090407  0.200914
			 0.965413 -0.108951  0.236868
			 0.950264 -0.102048  0.294252
			 0.914376 -0.156297  0.373481
			-0.379035 -0.417303  0.825948
			-0.244372 -0.451052  0.858391
			-0.639293 -0.238824  0.730936
			-0.779610 -0.196428  0.594664
			 0.182586 -0.566763  0.803394
			 0.007442 -0.473999  0.880494
			 0.329035 -0.501031  0.800440
			 0.594790 -0.440868  0.672206
			-0.521236 -0.762070 -0.384137
			-0.722025 -0.619884 -0.307286
			-0.241320 -0.869088 -0.431800
			-0.884570 -0.437915 -0.160516
			-0.952059 -0.292734 -0.088832
			-0.830049 -0.557372  0.018843
			-0.870437 -0.492280  0.000462
			-0.900035 -0.433785  0.042043
			-0.810373 -0.555693  0.185746
			-0.836030 -0.541665  0.087480
			-0.825412 -0.511252  0.239409
			-0.884454 -0.387107  0.260555
			-0.903273 -0.303865  0.302926
			-0.962414 -0.271069 -0.016731
			-0.939674 -0.160464  0.302099
			-0.903284 -0.173802  0.392265
			-0.875135 -0.148129  0.460649
			-0.924265 -0.199336  0.325575
			-0.920546 -0.156752  0.357804
			-0.929140 -0.133142  0.344923
			-0.897732 -0.184059  0.400249
			-0.981395 -0.182830  0.058631
			-0.953522 -0.253057 -0.163580
			-0.986767 -0.124975  0.103307
			-0.971472 -0.218347 -0.092552
			 0.993993  0.080408 -0.074247
			 0.970680  0.017173 -0.239761
			-0.234023 -0.814557 -0.530783
			-0.098723 -0.781281 -0.616323
			 0.472135 -0.676691 -0.564958
			 0.220009 -0.766270 -0.603677
			-0.021177 -0.767078 -0.641204
			 0.731925 -0.442067 -0.518520
			 0.833524 -0.244758 -0.495310
			 0.903399 -0.040906 -0.426845
			 0.818199 -0.053416 -0.572449
			 0.980534 -0.026690  0.194526
			 0.980427  0.159951 -0.114799
			 0.990098  0.137512  0.028234
			 0.991235  0.098955  0.087533
			 0.990834  0.080930  0.108157
			 0.989210  0.019703  0.145174
			 0.855399 -0.216272  0.470658
			 0.813321 -0.236509  0.531575
			 0.757862 -0.319958  0.568570
			 0.967072 -0.051931  0.249147
			 0.966047 -0.053153  0.252842
			 0.966748 -0.070673  0.245773
			 0.929685 -0.163783  0.329942
			-0.449890 -0.353650  0.820080
			-0.138318 -0.329865  0.933840
			-0.360108 -0.311733  0.879286
			-0.563225 -0.263730  0.783087
			-0.792587 -0.138936  0.593719
			-0.757617 -0.171589  0.629741
			-0.626250 -0.180595  0.758417
			 0.248490 -0.389693  0.886788
			 0.521422 -0.362155  0.772634
			 0.647690 -0.341748  0.680960
			-0.450728 -0.735653 -0.505628
			-0.647486 -0.665965 -0.370476
			-0.811000 -0.529216 -0.249419
			-0.821564 -0.463001 -0.332659
			-0.851002 -0.518693 -0.082176
			-0.899105 -0.405589 -0.164644
			-0.924034 -0.373457 -0.081803
			-0.904857 -0.422265  0.054092
			-0.924506 -0.381128  0.005534
			-0.887740 -0.454701  0.071865
			-0.842708 -0.509316  0.174474
			-0.812296 -0.536647  0.228440
			-0.861580 -0.494031  0.116674
			-0.887486 -0.458337 -0.047909
			-0.882375 -0.467798  0.050780
			-0.889146 -0.456200  0.036066
			-0.843002 -0.457543  0.282844
			-0.806746 -0.483839  0.339205
			-0.802329 -0.520666  0.291849
			-0.849768 -0.408669  0.332993
			-0.884619 -0.291460  0.364006
			-0.930931 -0.359173  0.066045
			-0.800125 -0.205799  0.563424
			-0.827391 -0.229729  0.512493
			-0.921080 -0.154815  0.357273
			-0.886586 -0.173167  0.428927
			-0.854506 -0.213555  0.473513
			-0.911383 -0.136777  0.388167
			-0.974993 -0.184353  0.124104
			-0.949776 -0.295173  0.103913
			-0.768754 -0.342503 -0.540101
			-0.975314 -0.220716 -0.006927
			-0.904150 -0.231747 -0.358897
			 0.955750  0.071636 -0.285326
			-0.320272 -0.754360 -0.573033
			 0.624118 -0.565806 -0.538832
			 0.259244 -0.738305 -0.622655
			-0.232731 -0.733782 -0.638279
			-0.065606 -0.687756 -0.722971
			 0.545903 -0.569615 -0.614434
			 0.676679 -0.271168 -0.684524
			 0.642841 -0.034381 -0.765228
			 0.915153  0.023433 -0.402424
			 0.780752 -0.070350 -0.620868
			 0.817253 -0.068932 -0.572142
			 0.527215 -0.065007 -0.847242
			 0.980032 -0.015086  0.198266
			 0.983376  0.035555  0.178066
			 0.991183  0.132183 -0.009175
			 0.973832  0.186847 -0.129383
			 0.946500  0.181787 -0.266628
			 0.938281  0.271510 -0.214268
			 0.991020  0.133602  0.005378
			 0.989218  0.115021  0.090657
			 0.989104  0.059347  0.134726
			 0.986109  0.098852  0.133483
			 0.979555  0.170586  0.106640
			 0.835601 -0.291947  0.465336
			 0.637000 -0.363370  0.679848
			 0.667992 -0.296589  0.682511
			 0.966919 -0.048177  0.250493
			 0.971540 -0.057382  0.229819
			 0.962419 -0.089521  0.256389
			 0.950169 -0.121057  0.287271
			 0.906871 -0.176106  0.382847
			 0.869761 -0.258392  0.420416
			-0.514392 -0.256126  0.818413
			 0.220974 -0.333376  0.916532
			 0.094208 -0.287090  0.953260
			-0.410940 -0.225424  0.883353
			-0.381468 -0.264428  0.885754
			-0.184470 -0.257726  0.948445
			-0.536836 -0.195947  0.820617
			-0.658065 -0.238305  0.714256
			-0.538428 -0.191362  0.820656
			 0.470476 -0.307482  0.827108
			-0.546250 -0.700784 -0.458816
			-0.606409 -0.479259 -0.634492
			-0.473145 -0.669623 -0.572486
			-0.895915 -0.381563 -0.227476
			-0.936040 -0.240343 -0.257030
			-0.898183 -0.339997 -0.278691
			-0.924280 -0.253264 -0.285595
			-0.951423 -0.246926 -0.183905
			-0.944595 -0.276096 -0.177518
			-0.971779 -0.184049 -0.147553
			-0.957125 -0.176224 -0.229905
			-0.930088 -0.367337 -0.000787
			-0.939127 -0.330733 -0.093039
			-0.940188 -0.339440 -0.028768
			-0.853096 -0.480927  0.202327
			-0.896896 -0.415074  0.152617
			-0.902340 -0.413051  0.123171
			-0.823959 -0.507923  0.251211
			-0.926998 -0.370793  0.056457
			-0.918810 -0.389239 -0.065423
			-0.907227 -0.420431 -0.013276
			-0.926776 -0.366582 -0.081882
			-0.817569 -0.431354  0.381464
			-0.804075 -0.456007  0.381472
			-0.822733 -0.462545  0.330397
			-0.790625 -0.434277  0.431642
			-0.840960 -0.461097  0.283155
			-0.845089 -0.379680  0.376389
			-0.897575 -0.251600  0.362019
			-0.860248 -0.343398  0.376898
			-0.697822 -0.268926  0.663870
			-0.747844 -0.279346  0.602241
			-0.919131 -0.164316  0.358049
			-0.838777 -0.193634  0.508879
			-0.790515 -0.244854  0.561367
			-0.870294 -0.185332  0.456334
			-0.396485 -0.401178 -0.825746
			-0.291563 -0.571672 -0.766931
			-0.508343 -0.231133 -0.829557
			-0.611423 -0.178349 -0.770944
			-0.947802 -0.209054 -0.240763
			-0.848461 -0.161919 -0.503880
			 0.147035 -0.623083 -0.768211
			-0.009188 -0.432197 -0.901733
			 0.311788 -0.307002 -0.899187
			 0.255731 -0.105675 -0.960955
			 0.915570  0.143228 -0.375788
			 0.875449 -0.002944 -0.483301
			 0.576114 -0.157316 -0.802087
			 0.651134 -0.114314 -0.750304
			 0.775765  0.015910 -0.630821
			 0.606710 -0.037085 -0.794058
			 0.136956 -0.177073 -0.974622
			 0.258427 -0.139027 -0.955974
			 0.970479  0.012283  0.240872
			 0.980645  0.031498  0.193242
			 0.988441  0.070648  0.134138
			 0.980113  0.189017 -0.060417
			 0.946140  0.288620 -0.146690
			 0.894487  0.313576 -0.318691
			 0.892664  0.430151 -0.134614
			 0.880723  0.430839 -0.196734
			 0.979442  0.201522  0.009082
			 0.959209  0.272220 -0.076252
			 0.966904  0.240731  0.084527
			 0.982788  0.162466  0.087938
			 0.960198  0.266034  0.085125
			 0.954557  0.289072  0.072517
			 0.936385  0.350338  0.021142
			 0.731257 -0.369534  0.573331
			 0.402542 -0.371308  0.836714
			 0.528173 -0.328302  0.783104
			 0.250737 -0.516915  0.818492
			 0.315575 -0.440145  0.840645
			 0.450889 -0.487215  0.747878
			 0.965370 -0.005276  0.260830
			 0.963914 -0.029613  0.264560
			 0.933918 -0.090050  0.345961
			 0.824442 -0.235392  0.514671
			 0.873887 -0.109180  0.473710
			 0.300146 -0.278765  0.912251
			 0.017549 -0.289599  0.956987
			-0.251461 -0.290056  0.923382
			-0.376027 -0.321334  0.869108
			-0.530981 -0.298267  0.793155
			-0.148595 -0.295039  0.943860
			 0.333911 -0.317014  0.887697
			-0.897749 -0.309281 -0.313675
			-0.917627 -0.344357 -0.198440
			-0.915689 -0.280151 -0.288147
			-0.932296 -0.284222 -0.223700
			-0.932612 -0.264551 -0.245452
			-0.918606 -0.253904 -0.302813
			-0.944344 -0.162321 -0.286121
			-0.944329 -0.108542 -0.310584
			-0.949775 -0.265111 -0.166264
			-0.958229 -0.137400 -0.250836
			-0.949126 -0.122864 -0.289939
			-0.913002  0.052915 -0.404509
			-0.873696  0.064692 -0.482152
			-0.921613  0.019167 -0.387637
			-0.923721 -0.038095 -0.381166
			-0.939252 -0.243639 -0.241756
			-0.935170 -0.178168 -0.306125
			-0.876511 -0.430293  0.215816
			-0.906583 -0.397947  0.140520
			-0.954832 -0.296649 -0.017160
			-0.957013 -0.282559  0.065471
			-0.968566 -0.248739 -0.002935
			-0.968385 -0.240249 -0.067160
			-0.964300 -0.252210 -0.080715
			-0.941913 -0.264737 -0.206673
			-0.815013 -0.401844  0.417462
			-0.851103 -0.389265  0.352272
			-0.814900 -0.395613  0.423590
			-0.880909 -0.379170  0.283248
			-0.812159 -0.339795  0.474275
			-0.786370 -0.326714  0.524291
			-0.791339 -0.374517  0.483238
			-0.829338 -0.388711  0.401375
			-0.854505 -0.341332  0.391553
			-0.901726 -0.251263  0.351791
			-0.571022 -0.330277  0.751566
			-0.643110 -0.333317  0.689427
			-0.875124 -0.249497  0.414619
			-0.764907 -0.217344  0.606366
			-0.717167 -0.270693  0.642181
			-0.781464 -0.204252  0.589572
			-0.778466 -0.224528  0.586155
			-0.103651 -0.248603 -0.963044
			-0.089287 -0.430688 -0.898073
			-0.244326 -0.142747 -0.959129
			-0.288102 -0.080919 -0.954175
			-0.521976 -0.108291 -0.846058
			-0.270285 -0.094689 -0.958113
			-0.826005 -0.070308 -0.559261
			-0.599047 -0.001176 -0.800713
			 0.866584  0.073023 -0.493660
			 0.849708  0.126519 -0.511848
			 0.211017 -0.152355 -0.965536
			 0.332134 -0.127052 -0.934636
			 0.588970  0.013113 -0.808048
			 0.492669  0.004803 -0.870204
			 0.195762 -0.074289 -0.977834
			-0.043997 -0.112083 -0.992724
			 0.045014 -0.092895 -0.994658
			 0.004616 -0.097719 -0.995203
			 0.956537  0.101168  0.273498
			 0.948729  0.076074  0.306799
			 0.973501  0.103808  0.203764
			 0.977471  0.150679  0.147808
			 0.827123  0.116652 -0.549782
			 0.805819  0.310102 -0.504472
			 0.810085  0.488266 -0.324591
			 0.843768  0.437050 -0.311518
			 0.845443  0.436426 -0.307828
			 0.850893  0.436297 -0.292619
			 0.856318  0.466052 -0.222519
			 0.850467  0.461177 -0.253026
			 0.925643  0.377038 -0.032060
			 0.867415  0.492988 -0.067484
			 0.828214  0.551899 -0.097307
			 0.826971  0.548527 -0.123440
			 0.828126  0.542263 -0.141978
			 0.959532  0.246395  0.136338
			 0.915038  0.368015  0.165140
			 0.890486  0.437263  0.125839
			 0.897194  0.439003  0.048167
			 0.895983  0.443997 -0.008988
			 0.868873  0.493115 -0.043542
			 0.873022  0.483314 -0.065116
			 0.628962 -0.371198  0.683095
			 0.570226 -0.438520  0.694652
			 0.130775 -0.372088  0.918939
			 0.148849 -0.522863  0.839320
			 0.040376 -0.549122  0.834766
			 0.083711 -0.479364  0.873615
			 0.408998 -0.469921  0.782237
			 0.168964 -0.501651  0.848409
			 0.957273  0.067682  0.281155
			 0.944762  0.074265  0.319233
			 0.944068  0.005453  0.329705
			 0.908517  0.011974  0.417677
			 0.719760 -0.253225  0.646392
			 0.762365 -0.127742  0.634414
			 0.832105  0.004716  0.554598
			-0.072310 -0.366721  0.927517
			-0.200957 -0.379701  0.903019
			-0.361293 -0.359029  0.860561
			-0.893891 -0.182641 -0.409392
			-0.909273 -0.234974 -0.343527
			-0.937955 -0.159499 -0.307897
			-0.916353 -0.141130 -0.374673
			-0.902690 -0.110664 -0.415818
			-0.930643 -0.090520 -0.354555
			-0.882718  0.003851 -0.469887
			-0.903460 -0.026170 -0.427872
			-0.871892  0.137132 -0.470105
			-0.800637  0.187518 -0.569050
			-0.855120  0.127870 -0.502412
			-0.792353  0.121726 -0.597795
			-0.893104  0.081756 -0.442358
			-0.821933 -0.006804 -0.569544
			-0.918807 -0.333562  0.211021
			-0.938939 -0.313776  0.141202
			-0.970960 -0.178886 -0.158859
			-0.985971 -0.157197  0.056123
			-0.990705 -0.135246 -0.014563
			-0.988949 -0.118510 -0.089081
			-0.977088 -0.097918 -0.188972
			-0.819962 -0.353951  0.449869
			-0.850327 -0.310949  0.424563
			-0.885921 -0.293795  0.358926
			-0.920037 -0.269091  0.284818
			-0.815748 -0.288211  0.501488
			-0.949680 -0.231714  0.210751
			-0.799528 -0.203850  0.564979
			-0.808931 -0.281593  0.516077
			-0.826450 -0.194208  0.528454
			-0.786319 -0.275298  0.553095
			-0.766531 -0.175501  0.617761
			-0.812233 -0.291349  0.505364
			-0.828407 -0.332817  0.450526
			-0.425555 -0.398308  0.812560
			-0.473077 -0.393302  0.788360
			-0.551546 -0.358425  0.753212
			-0.656129 -0.226331  0.719909
			-0.616824 -0.290810  0.731408
			-0.660132 -0.190686  0.726542
			-0.662631 -0.179262  0.727176
			-0.592863 -0.165911  0.788028
			-0.689713 -0.233114  0.685532
			-0.114645 -0.061551 -0.991498
			-0.136692 -0.075814 -0.987708
			-0.330236 -0.024655 -0.943576
			-0.202101 -0.053419 -0.977907
			-0.586341  0.134268 -0.798860
			-0.376872  0.044353 -0.925203
			-0.000349 -0.104807 -0.994493
			 0.139645 -0.020464 -0.989990
			 0.082537 -0.103057 -0.991245
			 0.575797  0.039982 -0.816614
			-0.083031 -0.079012 -0.993410
			 0.940431  0.238117  0.242671
			 0.910366  0.244412  0.333911
			 0.932049  0.130597  0.337977
			 0.917926  0.189239  0.348713
			 0.925998  0.152248  0.345468
			 0.484543  0.383410 -0.786266
			 0.698916  0.568309 -0.434213
			 0.779061  0.548287 -0.304049
			 0.695639  0.620126 -0.362671
			 0.650356  0.678257 -0.342058
			 0.791912  0.538014 -0.288820
			 0.811481  0.521119 -0.264449
			 0.815979  0.546625 -0.188097
			 0.811281  0.535244 -0.235237
			 0.811242  0.579768 -0.075864
			 0.762039  0.641715 -0.086594
			 0.758039  0.643527 -0.106065
			 0.774699  0.616112 -0.142293
			 0.862290  0.424570  0.276036
			 0.799710  0.580870  0.151834
			 0.719107  0.690626  0.076955
			 0.768021  0.634713  0.085347
			 0.816500  0.567588  0.105698
			 0.817068  0.574596 -0.047334
			 0.824493  0.565617  0.016974
			 0.830421  0.555857 -0.037735
			 0.810968  0.583279 -0.045998
			 0.810367  0.583304 -0.055334
			 0.575773 -0.350159  0.738833
			 0.342462 -0.454884  0.822071
			-0.011775 -0.390317  0.920605
			 0.039362 -0.519801  0.853380
			-0.084382 -0.463648  0.881992
			 0.067982 -0.445104  0.892895
			 0.008231 -0.480165  0.877139
			 0.898896  0.108866  0.424423
			 0.824484  0.097712  0.557385
			 0.633462 -0.187014  0.750834
			 0.676811 -0.077550  0.732061
			 0.702213 -0.015594  0.711797
			 0.704189  0.093706  0.703802
			-0.183819 -0.402691  0.896689
			-0.198911 -0.388265  0.899825
			-0.882554 -0.088081 -0.461888
			-0.861841 -0.025935 -0.506515
			-0.923063 -0.034179 -0.383128
			-0.950600 -0.068019 -0.302876
			-0.890651 -0.007318 -0.454628
			-0.878920 -0.015898 -0.476705
			-0.833441  0.034766 -0.551514
			-0.769295  0.088794 -0.632693
			-0.818649  0.106353 -0.564360
			-0.786713  0.230468 -0.572685
			-0.742225  0.168811 -0.648540
			-0.722985  0.312218 -0.616289
			-0.733739  0.191061 -0.652015
			-0.973928 -0.185073  0.131196
			-0.999069  0.029860 -0.031127
			-0.999010 -0.007547  0.043849
			-0.994226  0.037611 -0.100500
			-0.985675  0.031811 -0.165630
			-0.964842  0.056550 -0.256674
			-0.811603 -0.298521  0.502181
			-0.772601 -0.258738  0.579778
			-0.893560 -0.193769  0.404975
			-0.865606 -0.178579  0.467799
			-0.925784 -0.164382  0.340445
			-0.959867 -0.108911  0.258445
			-0.979878 -0.081029  0.182412
			-0.787287 -0.139735  0.600544
			-0.827844 -0.139818  0.543255
			-0.992664 -0.038984  0.114452
			-0.809197 -0.085205  0.581327
			-0.750377  0.022433  0.660629
			-0.753224 -0.151860  0.639993
			-0.823067 -0.132644  0.552237
			-0.800647 -0.000242  0.599137
			-0.723143  0.031793  0.689966
			-0.744712 -0.250186  0.618717
			-0.277130 -0.435602  0.856417
			-0.360174 -0.427773  0.829027
			-0.330291 -0.425710  0.842424
			-0.405753 -0.382945  0.829890
			-0.480645 -0.286398  0.828828
			-0.494335 -0.206780  0.844319
			-0.571993 -0.164152  0.803666
			-0.499218 -0.153780  0.852721
			-0.458416 -0.122934  0.880194
			-0.411586 -0.090152  0.906901
			-0.526634 -0.132727  0.839666
			-0.626831 -0.178796  0.758363
			-0.359768 -0.050714  0.931663
			-0.572906 -0.162031  0.803446
			-0.623105 -0.202516  0.755465
			-0.276803 -0.003837 -0.960919
			-0.144451 -0.054760 -0.987996
			-0.607445  0.356444 -0.709901
			-0.551763  0.245969 -0.796904
			-0.416762  0.123389 -0.900602
			-0.326541  0.019797 -0.944976
			-0.310917  0.051279 -0.949053
			 0.170713  0.029094 -0.984891
			 0.785346  0.484352  0.385533
			 0.896570  0.212434  0.388632
			 0.878834  0.229283  0.418426
			 0.855640  0.319647  0.407069
			 0.904494  0.241335  0.351637
			 0.883537  0.260795  0.389034
			 0.896801  0.205451  0.391840
			 0.871428  0.183541  0.454890
			-0.033135  0.281728 -0.958922
			 0.083754  0.463750 -0.881999
			 0.124117  0.525523 -0.841677
			 0.290699  0.661951 -0.690880
			 0.553152  0.635428 -0.538752
			 0.624305  0.578359 -0.525114
			 0.591789  0.674049 -0.442089
			 0.695164  0.638453 -0.330339
			 0.604024  0.670244 -0.431193
			 0.750854  0.604457 -0.266176
			 0.771059  0.601870 -0.207896
			 0.750281  0.658098 -0.063131
			 0.659305  0.749324 -0.061894
			 0.662157  0.745855 -0.072441
			 0.684420  0.721650 -0.103874
			 0.655729  0.750930 -0.078252
			 0.685693  0.711025 -0.155780
			 0.788793  0.555867  0.262329
			 0.718634  0.573890  0.392703
			 0.724789  0.673275  0.146227
			 0.676605  0.727614  0.113063
			 0.625515  0.773416  0.102758
			 0.643099  0.765075  0.032915
			 0.705621  0.703309  0.086349
			 0.752179  0.658816  0.013694
			 0.755038  0.654308 -0.042419
			 0.755285  0.653164 -0.054046
			 0.454703 -0.347510  0.820050
			 0.220935 -0.402672  0.888281
			-0.184736 -0.462249  0.867294
			 0.009768 -0.363769  0.931438
			-0.073821 -0.426411  0.901512
			 0.232057 -0.287186  0.929341
			 0.794293  0.166148  0.584374
			 0.691654  0.133532  0.709778
			 0.475564 -0.212377  0.853660
			 0.489624 -0.097310  0.866487
			 0.582080 -0.077812  0.809400
			 0.538612 -0.060231  0.840398
			 0.583876  0.085586  0.807319
			 0.599595  0.029007  0.799778
			 0.575483  0.118072  0.809245
			-0.843051  0.060547 -0.534415
			-0.813598  0.108985 -0.571122
			-0.820728  0.053188 -0.568838
			-0.798953  0.060034 -0.598390
			-0.936209  0.078564 -0.342551
			-0.898500  0.102550 -0.426828
			-0.843048  0.154851 -0.515065
			-0.714609  0.099897 -0.692354
			-0.668635  0.136478 -0.730959
			-0.627587  0.363746 -0.688349
			-0.648782  0.247470 -0.719612
			-0.977839  0.181095 -0.105052
			-0.977156  0.212480 -0.004295
			-0.967392  0.249012 -0.046314
			-0.986328  0.157113  0.049725
			-0.952813  0.224939 -0.203838
			-0.917337  0.238637 -0.318662
			-0.705938 -0.147141  0.692821
			-0.661407 -0.146684  0.735543
			-0.916786 -0.034936  0.397848
			-0.879530 -0.003664  0.475828
			-0.952485  0.046591  0.301002
			-0.969588  0.076797  0.232381
			-0.975376  0.131146  0.177318
			-0.985889  0.096304  0.136928
			-0.979632  0.178150  0.092652
			-0.791215  0.035073  0.610532
			-0.829349  0.034745  0.557649
			-0.788273 -0.016685  0.615099
			-0.732468  0.110467  0.671779
			-0.642758  0.277873  0.713897
			-0.619720  0.231367  0.749944
			-0.614404 -0.030630  0.788397
			-0.704590 -0.018626  0.709370
			-0.784063 -0.055464  0.618198
			-0.754251  0.140026  0.641482
			-0.683429  0.221905  0.695474
			-0.621177  0.265237  0.737420
			-0.684880  0.180954  0.705829
			-0.706819 -0.207086  0.676404
			-0.248655 -0.424220  0.870751
			-0.282037 -0.357992  0.890111
			-0.314021 -0.266952  0.911114
			-0.281340 -0.164966  0.945322
			-0.403878 -0.151614  0.902162
			-0.302364 -0.104262  0.947473
			-0.255726 -0.059768  0.964900
			-0.224121 -0.033943  0.973970
			-0.453874 -0.076425  0.887783
			-0.168721  0.016167  0.985531
			-0.139512  0.077861  0.987155
			-0.226892  0.047674  0.972753
			-0.611575 -0.107826  0.783805
			-0.560273 -0.071075  0.825253
			-0.655675 -0.136883  0.742532
			-0.615094  0.319348 -0.720886
			-0.505675  0.151277 -0.849357
			-0.603638  0.294902 -0.740712
			-0.628513  0.257985 -0.733768
			-0.401123  0.310228 -0.861893
			-0.530367  0.267205 -0.804557
			 0.799163  0.434897  0.414973
			 0.734515  0.540616  0.410148
			 0.689076  0.595776  0.412583
			 0.685780  0.613294  0.391889