<?xml version="1.0"?>
<VTKFile type="PolyData" version="0.1" byte_order="LittleEndian" compressor="vtkZLibDataCompressor">
	<PolyData>
		<Piece NumberOfPoints="15475" NumberOfVerts="0" NumberOfLines="0" NumberOfStrips="0" NumberOfPolys="30927">
		<PointData Normals="Normals">
		<DataArray type="Float32" Name="Normals" NumberOfComponents="3" format="ascii">
			 0.638848 -0.748893  0.176160
			 0.459611 -0.880939  0.112713
			 0.841442 -0.469962  0.266667
			 0.812379 -0.475438  0.337638
			 0.497094 -0.839151  0.220735
			 0.194140 -0.979916  0.045545
			 0.921267 -0.151817  0.358078
			 0.414637 -0.909656  0.024548
			 0.847075 -0.509753  0.150386
			 0.114811 -0.993236 -0.017310
			 0.951888 -0.094991  0.291352
			 0.827864 -0.278063  0.487157
			 0.586623 -0.715598  0.379199
			 0.203843 -0.977723  0.050057
			 0.017556 -0.998970  0.041849
			 0.900554 -0.016676  0.434424
			 0.927252 -0.001026  0.374436
			 0.387153 -0.894664 -0.222911
			 0.836828 -0.519055 -0.174070
			 0.068751 -0.978396 -0.194975
			 0.969538 -0.127827  0.208940
			 0.762031 -0.543891  0.351414
			 0.868944 -0.089373  0.486773
			 0.478846 -0.874530  0.076835
			 0.372616 -0.895608  0.242988
			 0.104552 -0.974072  0.200632
			-0.021583 -0.983144 -0.181555
			-0.046496 -0.957284 -0.285385
			-0.074824 -0.993217  0.088996
			 0.030275 -0.966924 -0.253260
			-0.166413 -0.985337 -0.037644
			-0.512088 -0.852018 -0.108771
			-0.039092 -0.964147  0.262475
			-0.563770 -0.489509  0.665240
			 0.243268 -0.769680  0.590265
			 0.901401 -0.006725  0.432934
			 0.933042 -0.126166  0.336920
			 0.905959 -0.038166  0.421643
			 0.911837 -0.023683  0.409870
			 0.355128 -0.750793 -0.556951
			 0.940189 -0.246565 -0.235054
			 0.543419 -0.314741 -0.778225
			 0.113999 -0.889106 -0.443278
			 0.259082 -0.672759 -0.693017
			 0.719669 -0.552521  0.420472
			 0.852951 -0.218239  0.474179
			 0.847726 -0.061264  0.526885
			 0.876742 -0.018838  0.480591
			 0.743345 -0.455629  0.489735
			 0.792489 -0.429737  0.432768
			 0.534180 -0.783744  0.316854
			 0.392243 -0.808339  0.439014
			 0.166572 -0.817400  0.551462
			 0.311574 -0.559616  0.767953
			 0.292641 -0.792201  0.535517
			 0.108396 -0.792398  0.600296
			 0.129057 -0.846540  0.516444
			-0.058679 -0.812707 -0.579711
			-0.150464 -0.617735 -0.771858
			-0.223734 -0.616399 -0.754981
			-0.183719 -0.875573  0.446788
			-0.540748 -0.796994  0.269057
			-0.211964 -0.718717 -0.662206
			 0.119004 -0.881180 -0.457558
			-0.120202 -0.534816 -0.836375
			-0.572926 -0.819543 -0.010256
			-0.555158 -0.831176  0.030748
			-0.758455 -0.646444 -0.082803
			-0.862464 -0.426323  0.272773
			-0.214130 -0.654732  0.724896
			-0.697492 -0.637402  0.327450
			-0.810168 -0.049183  0.584131
			-0.752120 -0.040397  0.657787
			-0.835659 -0.192708  0.514332
			-0.927994 -0.019193  0.372102
			 0.884502 -0.020450  0.466089
			 0.904713 -0.045902  0.423542
			 0.983097 -0.182527 -0.014279
			 0.924446 -0.054291  0.377428
			 0.997926 -0.040765 -0.049812
			 0.900201 -0.021502  0.434944
			 0.920082 -0.015236  0.391431
			 0.783718 -0.064941 -0.617712
			 0.533724 -0.094987 -0.840307
			 0.202364 -0.050561 -0.978004
			 0.188739 -0.466609 -0.864091
			-0.004150 -0.324602 -0.945842
			 0.816950 -0.194952  0.542758
			 0.795878 -0.120906  0.593262
			 0.799717 -0.056387  0.597723
			 0.861405 -0.033589  0.506807
			 0.637511 -0.503906  0.582802
			 0.777524 -0.265161  0.570215
			 0.656516 -0.278175  0.701146
			 0.651436 -0.268668  0.709541
			 0.494987 -0.563932  0.661035
			 0.383491 -0.350424  0.854481
			 0.264407 -0.466595  0.844025
			 0.315499 -0.185308  0.930657
			 0.297685 -0.194999  0.934537
			 0.208862 -0.373091  0.903980
			 0.264649 -0.474531  0.839513
			 0.011746 -0.042438 -0.999030
			-0.185946 -0.170670 -0.967624
			-0.281777 -0.056739 -0.957801
			-0.065508 -0.648618  0.758290
			-0.595511 -0.426963  0.680492
			-0.733980 -0.327861  0.594795
			-0.425593 -0.207197 -0.880874
			-0.005269 -0.163505 -0.986529
			 0.155263 -0.349112 -0.924129
			-0.263433 -0.923376  0.279250
			-0.095201 -0.995345 -0.014999
			-0.069128 -0.786795 -0.613331
			-0.108085 -0.386122 -0.916093
			-0.975942 -0.217077  0.020366
			-0.938551 -0.306255  0.159152
			-0.979369 -0.199357  0.033059
			-0.620524 -0.070160  0.781042
			-0.578957 -0.026938  0.814913
			-0.576211  0.015394  0.817156
			-0.679327  0.036287  0.732939
			-0.857432 -0.006064  0.514562
			-0.824952 -0.009095  0.565130
			-0.898589 -0.005117  0.438762
			-0.968645 -0.013623  0.248074
			-0.987857 -0.062999  0.142018
			 0.869851 -0.071467  0.488110
			 0.935485 -0.023291  0.352599
			 0.891177 -0.091267  0.444381
			 0.998153 -0.006269 -0.060431
			 0.930648  0.006850  0.365851
			 0.716163  0.024357 -0.697507
			 0.912747  0.027610  0.407592
			 0.934304  0.024898  0.355608
			 0.346415  0.039159 -0.937264
			 0.135207  0.035118 -0.990195
			 0.664429 -0.090702  0.741827
			 0.676721 -0.055954  0.734110
			 0.708964 -0.035405  0.704355
			 0.809226 -0.051424  0.585242
			 0.856285 -0.063927  0.512533
			 0.489761 -0.120652  0.863468
			 0.314269 -0.080050  0.945953
			 0.267811 -0.104116  0.957829
			 0.202168 -0.145163  0.968533
			-0.208150 -0.198574  0.957728
			-0.153682 -0.110850  0.981883
			-0.097158  0.030588 -0.994799
			 0.016745  0.037098 -0.999171
			-0.269296 -0.020507 -0.962839
			-0.124785  0.030352 -0.991719
			-0.223569  0.012882 -0.974603
			-0.095737 -0.066191 -0.993204
			-0.090665  0.051972 -0.994524
			-0.238074  0.010833 -0.971187
			-0.395135 -0.095691 -0.913626
			-0.744976 -0.642686  0.178788
			-0.704294 -0.669364 -0.236477
			-0.680144 -0.383499 -0.624766
			-0.751352 -0.147572 -0.643189
			-0.965799 -0.229017 -0.121584
			-0.996056 -0.081755  0.034474
			-0.996879 -0.025542  0.074694
			-0.160651 -0.041110  0.986155
			-0.158984  0.000871  0.987281
			-0.338871  0.078683  0.937537
			-0.410682  0.070325  0.909063
			-0.690770  0.049146  0.721403
			-0.838140  0.037415  0.544171
			-0.905549 -0.011608  0.424082
			-0.958333 -0.018100  0.285081
			-0.991480 -0.012250  0.129684
			-0.988132 -0.017530  0.152607
			 0.871855 -0.070278  0.484695
			 0.872562 -0.060434  0.484752
			 0.906871 -0.052376  0.418141
			 0.946699  0.011056  0.321931
			 0.918920 -0.013619  0.394208
			 0.782560  0.042906 -0.621095
			 0.997350  0.071567  0.013109
			 0.949442  0.085397  0.302103
			 0.340700  0.045300 -0.939080
			 0.926473  0.043779  0.373806
			 0.934596  0.015276  0.355384
			 0.129258  0.004376 -0.991601
			 0.445993 -0.051653  0.893545
			 0.514896 -0.043367  0.856155
			 0.663624 -0.052620  0.746214
			 0.761323 -0.043756  0.646895
			 0.815477 -0.039370  0.577449
			 0.847786 -0.055842  0.527391
			 0.297702 -0.054923  0.953078
			 0.264129 -0.065292  0.962275
			 0.202815 -0.058050  0.977495
			-0.022993  0.015621 -0.999614
			-0.292062  0.029504 -0.955944
			-0.258145  0.007387 -0.966078
			-0.089745  0.008888 -0.995925
			-0.142189 -0.001197 -0.989839
			-0.221581 -0.020937 -0.974917
			-0.300639  0.040903 -0.952861
			-0.347444  0.064421 -0.935485
			-0.442182  0.042741 -0.895906
			-0.449941  0.002930 -0.893053
			-0.749394 -0.010953 -0.662034
			-0.558985  0.047541 -0.827814
			-0.959210 -0.051646 -0.277938
			-0.990304  0.030361 -0.135561
			-0.999733 -0.003478  0.022830
			-0.993068  0.029968 -0.113657
			 0.064987  0.025574  0.997558
			-0.007351  0.042847  0.999055
			-0.101985  0.011156  0.994723
			-0.468087  0.031232  0.883130
			-0.765534  0.016757  0.643177
			-0.921236  0.010628  0.388859
			-0.977824 -0.023930  0.208058
			-0.995859 -0.029043  0.086153
			 0.913622 -0.024459  0.405828
			 0.865763 -0.047022  0.498240
			 0.943128  0.003923  0.332407
			 0.936480 -0.000517  0.350721
			 0.986633  0.122049 -0.107978
			 0.814975  0.130875 -0.564524
			 0.477667  0.056711 -0.876709
			 0.980356  0.062329  0.187129
			 0.931400 -0.003282  0.363982
			 0.367676  0.037568 -0.929195
			 0.535625  0.045690 -0.843219
			 0.548730 -0.023958 -0.835656
			 0.222602 -0.041407 -0.974030
			 0.013447  0.011557 -0.999843
			-0.000709  0.013851 -0.999904
			 0.008604 -0.036421 -0.999300
			-0.045011 -0.014224 -0.998885
			 0.349988 -0.030635  0.936253
			 0.305492 -0.053198  0.950707
			 0.470820 -0.094738  0.877128
			 0.701669 -0.051288  0.710654
			 0.807405 -0.035592  0.588923
			 0.263654 -0.048275  0.963409
			 0.230519 -0.029036  0.972634
			-0.049150  0.012575 -0.998712
			-0.501868  0.054827 -0.863205
			-0.493607  0.110794 -0.862599
			-0.350434  0.049550 -0.935276
			-0.283716 -0.016553 -0.958765
			-0.072495 -0.013998 -0.997270
			-0.041159  0.001384 -0.999152
			-0.137498 -0.040044 -0.989692
			-0.298790 -0.039740 -0.953491
			-0.317564 -0.035380 -0.947577
			-0.596395  0.056268 -0.800716
			-0.700506  0.053328 -0.711651
			-0.710116  0.020660 -0.703781
			-0.859521  0.055504 -0.508078
			-0.917323  0.044279 -0.395674
			-0.992422 -0.020510 -0.121149
			-0.968984  0.041916 -0.243542
			-0.926774  0.047271 -0.372634
			 0.182555 -0.025212  0.982872
			 0.106424 -0.036524  0.993650
			-0.151233 -0.000636  0.988498
			-0.228218  0.000390  0.973610
			-0.541184 -0.044721  0.839714
			-0.772912 -0.103359  0.626039
			-0.894379 -0.038893  0.445615
			-0.972221 -0.041951  0.230276
			-0.997962 -0.043164  0.046999
			 0.915850 -0.038198  0.399700
			 0.948239 -0.006253  0.317497
			 0.838769 -0.041883  0.542875
			 0.889481 -0.048858  0.454353
			 0.920923 -0.039411  0.387746
			 0.935397 -0.033207  0.352036
			 0.905727 -0.046919  0.421256
			 0.914242  0.129134 -0.384039
			 0.726122  0.055401 -0.685330
			 0.983560  0.046636 -0.174458
			 0.991945  0.008353  0.126397
			 0.908150 -0.006994 -0.418587
			 0.903593  0.057651 -0.424495
			 0.933950 -0.024355 -0.356572
			 0.918835  0.011040 -0.394488
			 0.607969 -0.034859 -0.793195
			 0.263632 -0.016790 -0.964477
			-0.079614 -0.053431 -0.995393
			 0.178462 -0.007972 -0.983915
			-0.075970 -0.067771 -0.994804
			 0.124735 -0.034493 -0.991590
			-0.009020 -0.059688 -0.998176
			-0.068404 -0.023658 -0.997377
			 0.262701 -0.095542  0.960135
			 0.486652 -0.099727  0.867885
			 0.299104 -0.103968  0.948540
			 0.617136 -0.025261  0.786451
			 0.711770 -0.013250  0.702288
			 0.772179 -0.048763  0.633531
			-0.761174  0.060973 -0.645675
			-0.759370  0.124157 -0.638703
			-0.609775  0.118977 -0.783593
			-0.414919 -0.012468 -0.909773
			-0.045352 -0.034951 -0.998359
			 0.025632 -0.029032 -0.999250
			-0.009822 -0.018485 -0.999781
			-0.313706 -0.075262 -0.946533
			-0.215371 -0.051287 -0.975185
			-0.450650 -0.029954 -0.892198
			-0.479137 -0.018537 -0.877544
			-0.584506 -0.042401 -0.810281
			-0.908521  0.004729 -0.417812
			-0.981766 -0.036691 -0.186517
			-0.927990 -0.016611 -0.372235
			-0.859966  0.135324 -0.492084
			-0.804573  0.054484 -0.591349
			 0.134382 -0.058420  0.989206
			-0.169436 -0.096202  0.980835
			-0.543787 -0.152022  0.825340
			-0.521676 -0.078593  0.849516
			-0.918079 -0.077715  0.388705
			-0.754727 -0.190730  0.627701
			-0.896886 -0.120404  0.425558
			-0.975008 -0.063413  0.212928
			-0.998159 -0.055149  0.025235
			 0.941981 -0.047975  0.332220
			 0.957352 -0.048383  0.284845
			 0.866954 -0.062476  0.494457
			 0.826878 -0.049889  0.560165
			 0.918490 -0.073426  0.388567
			 0.979801 -0.069794  0.187399
			 0.897124 -0.086729  0.433182
			 0.936070 -0.099461  0.337462
			 0.897782 -0.104280  0.427917
			 0.996913 -0.027286  0.073619
			 0.997279  0.031633  0.066586
			 0.947388 -0.035647 -0.318096
			 0.998926  0.005675  0.045994
			 0.800430  0.000854 -0.599425
			 0.623005  0.030828 -0.781610
			 0.479408  0.027921 -0.877148
			-0.041310 -0.061824 -0.997232
			-0.093842 -0.063518 -0.993559
			-0.027469 -0.065198 -0.997494
			 0.389822  0.053556 -0.919332
			 0.313504  0.040987 -0.948702
			-0.080833 -0.070548 -0.994228
			 0.341799 -0.005719 -0.939756
			 0.164728 -0.030184 -0.985877
			 0.034685 -0.045900 -0.998344
			-0.060961 -0.053666 -0.996696
			 0.406807 -0.025843  0.913149
			 0.248399 -0.057784  0.966933
			 0.483255  0.020828  0.875232
			 0.592431 -0.058655  0.803483
			 0.798420 -0.050445  0.599984
			 0.720121 -0.019137  0.693585
			 0.693607 -0.065433  0.717376
			-0.601931  0.020061 -0.798296
			-0.156963 -0.083763 -0.984046
			 0.048660 -0.052822 -0.997418
			 0.059380 -0.087316 -0.994409
			-0.447466 -0.070027 -0.891555
			-0.516077 -0.058696 -0.854529
			-0.643333 -0.002858 -0.765581
			-0.766688  0.008752 -0.641960
			-0.814381 -0.031343 -0.579484
			-0.678629 -0.062882 -0.731784
			-0.995258 -0.053358 -0.081333
			-0.912740 -0.016561 -0.408204
			-0.937543 -0.032098 -0.346385
			-0.866355 -0.015997 -0.499172
			 0.142073 -0.027142  0.989484
			-0.082708 -0.031897  0.996063
			-0.307020 -0.053889  0.950176
			-0.371706 -0.153523  0.915568
			-0.646538 -0.213135  0.732504
			-0.789417 -0.118499  0.602311
			-0.914376 -0.114645  0.388295
			-0.934459 -0.063760  0.350315
			-0.976478 -0.063523  0.206047
			-0.992593 -0.059861  0.105713
			 0.948293 -0.099827  0.301289
			 0.900274 -0.054642  0.431882
			 0.859843 -0.048237  0.508275
			 0.866598 -0.013501  0.498825
			 0.937417 -0.073713  0.340316
			 0.914917 -0.091142  0.393217
			 0.926001 -0.120150  0.357891
			 0.908154 -0.077359  0.411426
			 0.944662 -0.015953  0.327656
			 0.954403  0.044544  0.295178
			 0.992217 -0.032615  0.120170
			 0.946622  0.025228 -0.321358
			 0.999260 -0.001622  0.038418
			 0.937950 -0.017233  0.346343
			 0.883276  0.082156 -0.461600
			 0.783500  0.086881 -0.615288
			 0.613995  0.064740 -0.786651
			 0.033576 -0.086045 -0.995725
			-0.109185 -0.060454 -0.992181
			-0.082519 -0.051173 -0.995275
			 0.083631 -0.074580 -0.993702
			 0.036467 -0.053849 -0.997883
			 0.618774 -0.031436 -0.784940
			 0.314073 -0.013411 -0.949304
			 0.101294  0.002011 -0.994854
			-0.033976 -0.020820 -0.999206
			-0.104602 -0.043260 -0.993573
			 0.274601  0.009756  0.961509
			 0.263115 -0.001480  0.964763
			 0.358854 -0.017488  0.933230
			 0.396558 -0.061240  0.915965
			 0.579254 -0.038717  0.814227
			 0.821677  0.005113  0.569931
			 0.735550 -0.015539  0.677292
			 0.573197 -0.027103  0.818969
			-0.558236 -0.088542 -0.824944
			-0.179527 -0.119952 -0.976413
			-0.001440 -0.083643 -0.996495
			-0.766080 -0.038955 -0.641564
			-0.756235 -0.034631 -0.653384
			-0.995574 -0.070210  0.062479
			-0.982156 -0.057923 -0.178924
			-0.867083  0.006926 -0.498116
			-0.886038 -0.006993 -0.463561
			-0.877977 -0.019832 -0.478293
			-0.919713 -0.033615 -0.391150
			-0.808571  0.008247 -0.588340
			-0.855335  0.004527 -0.518056
			-0.052093 -0.046524  0.997558
			 0.168815 -0.016629  0.985507
			 0.003066 -0.056094  0.998421
			-0.276915 -0.083658  0.957246
			-0.548445 -0.107081  0.829302
			-0.883385 -0.045919  0.466394
			-0.565718 -0.045507  0.823342
			-0.751645 -0.029176  0.658922
			-0.777792 -0.019048  0.628233
			-0.796515 -0.125844  0.591377
			-0.975112 -0.061313  0.213068
			-0.892092 -0.127700  0.433432
			-0.957898 -0.069600  0.278544
			-0.981281 -0.062363  0.182205
			 0.919528  0.003075  0.393014
			 0.921048  0.096867  0.377210
			 0.885027  0.059887  0.461671
			 0.937498 -0.027571  0.346896
			 0.945838  0.049384  0.320860
			 0.931965  0.032101  0.361124
			 0.922902  0.061151  0.380149
			 0.935021 -0.015991  0.354230
			 0.989784  0.092801 -0.108241
			 0.965324  0.042760  0.257528
			 0.891000 -0.017339  0.453672
			 0.920672  0.078772 -0.382307
			 0.994469  0.083942 -0.063128
			 0.939415  0.110011 -0.324650
			 0.898370  0.035207 -0.437827
			-0.065205 -0.047974 -0.996718
			 0.133188 -0.065299 -0.988937
			 0.095018 -0.070926 -0.992946
			-0.093230 -0.044313 -0.994658
			 0.039123 -0.074154 -0.996479
			 0.118547 -0.065591 -0.990780
			 0.896453 -0.096484 -0.432507
			 0.552441 -0.128856 -0.823532
			 0.195121 -0.032862 -0.980228
			 0.006600 -0.011274 -0.999915
			-0.079947 -0.026753 -0.996440
			 0.220272 -0.015274  0.975319
			 0.210998 -0.053515  0.976020
			 0.261379 -0.113529  0.958537
			 0.834252  0.093089  0.543468
			 0.867904  0.114330  0.483395
			 0.748100  0.002586  0.663581
			 0.631674 -0.015078  0.775088
			 0.435799 -0.075746  0.896851
			-0.315896 -0.045572 -0.947699
			-0.670640 -0.006670 -0.741753
			-0.982963 -0.087834  0.161458
			-0.989772 -0.086292  0.113605
			-0.996928 -0.069806 -0.035522
			-0.962249 -0.054289 -0.266700
			-0.808990  0.012207 -0.587696
			-0.847893 -0.002866 -0.530159
			-0.882929 -0.035860 -0.468135
			-0.855925 -0.019888 -0.516718
			-0.566499  0.007307 -0.824030
			 0.132165 -0.020857  0.991008
			-0.029207 -0.028333  0.999172
			-0.280535 -0.005206  0.959830
			-0.559227  0.000120  0.829014
			-0.525338 -0.039531  0.849975
			-0.570444 -0.101130  0.815087
			-0.552088 -0.214104  0.805828
			-0.781435 -0.160377  0.603024
			-0.739919 -0.193135  0.644374
			-0.798637 -0.192444  0.570214
			-0.903161 -0.182972  0.388358
			-0.962835 -0.110740  0.246343
			 0.943885  0.123969  0.306126
			 0.923464  0.138947  0.357642
			 0.902543  0.157149  0.400899
			 0.945299  0.092239  0.312892
			 0.905020  0.008592  0.425282
			 0.940197  0.099556  0.325758
			 0.893191 -0.026916  0.448871
			 0.906367 -0.008452  0.422406
			 0.962423  0.059656  0.264922
			 0.976933  0.089308  0.193973
			 0.996049  0.084834 -0.026250
			 0.999237 -0.038992 -0.002041
			-0.044146 -0.062832 -0.997047
			 0.120635 -0.068724 -0.990315
			-0.108980 -0.062638 -0.992068
			 0.089289 -0.098006 -0.991172
			 0.053036 -0.090105 -0.994519
			 0.059890 -0.048294 -0.997036
			-0.028553 -0.051214 -0.998279
			 0.922817 -0.175119 -0.343136
			 0.992794 -0.103675  0.060102
			 0.747765 -0.098777 -0.656575
			 0.407190 -0.078065 -0.910001
			 0.123295 -0.065652 -0.990196
			-0.025088 -0.065687 -0.997525
			 0.092547 -0.077232  0.992709
			 0.184958 -0.099344  0.977712
			 0.069956 -0.114231  0.990988
			 0.840856  0.068483  0.536910
			 0.878284  0.140640  0.456988
			 0.754265  0.021478  0.656218
			 0.749816  0.046778  0.659991
			 0.654470  0.003146  0.756081
			 0.494415  0.003367  0.869220
			 0.283615 -0.023817  0.958642
			-0.975224 -0.109344  0.192309
			-0.981799 -0.098041  0.162661
			-0.996007 -0.088689 -0.010257
			-0.986842 -0.095143  0.130732
			-0.980325 -0.096361  0.172273
			-0.958716 -0.064813 -0.276880
			-0.909334 -0.053650 -0.412593
			-0.770913 -0.006410 -0.636909
			-0.827444 -0.018560 -0.561241
			-0.868808 -0.049245 -0.492695
			-0.838231 -0.035071 -0.544186
			-0.208704 -0.024074 -0.977682
			-0.498225 -0.056756 -0.865188
			-0.016395  0.010534  0.999810
			-0.012596 -0.028953  0.999501
			-0.261675 -0.017598  0.964996
			-0.269097 -0.061182  0.961168
			-0.268763 -0.117416  0.956023
			-0.174633 -0.138196  0.974887
			-0.451782 -0.226006  0.863026
			-0.540709 -0.160892  0.825680
			-0.717289 -0.170392  0.675620
			-0.865562 -0.195784  0.460945
			-0.952002 -0.154661  0.264143
			 0.921419  0.049277  0.385435
			 0.914557  0.054116  0.400821
			 0.906282  0.128839  0.402558
			 0.888730 -0.020874  0.457956
			 0.918436  0.039875  0.393555
			 0.898777 -0.005155  0.438375
			 0.936057  0.067823  0.345249
			 0.957909  0.049530  0.282766
			 0.959970 -0.042270  0.276895
			-0.013180 -0.072342 -0.997293
			-0.121847 -0.132214 -0.983704
			 0.122906 -0.093303 -0.988023
			 0.002157 -0.097890 -0.995195
			 0.077796 -0.083762 -0.993444
			 0.964010  0.008057 -0.265744
			 0.983755 -0.101000  0.148409
			 0.926851 -0.044560  0.372776
			 0.817538  0.004059 -0.575861
			 0.449539 -0.077812 -0.889865
			 0.464780  0.017749 -0.885248
			 0.431489 -0.095912 -0.897005
			 0.178435 -0.099162 -0.978942
			-0.037601 -0.085561 -0.995623
			 0.036590 -0.076327  0.996411
			-0.031292 -0.076627  0.996569
			 0.073008 -0.040203  0.996521
			 0.879436  0.048394  0.473552
			 0.791874  0.025333  0.610159
			 0.860831 -0.011382  0.508763
			 0.892058  0.023333  0.451317
			 0.782137 -0.048891  0.621186
			 0.455665  0.005868  0.890132
			 0.672724 -0.043572  0.738610
			 0.486080 -0.054251  0.872229
			 0.263667  0.010680  0.964555
			-0.950447 -0.116752  0.288133
			-0.966786 -0.102069  0.234321
			-0.989616 -0.089936  0.112124
			-0.996282 -0.071900  0.047452
			-0.992170 -0.075687 -0.099349
			-0.961416 -0.080401  0.263088
			-0.976319 -0.106098  0.188532
			-0.952612 -0.106625  0.284890
			-0.893104 -0.057447 -0.446168
			-0.989509 -0.061232 -0.130853
			-0.928239 -0.077017 -0.363924
			-0.771222 -0.033175 -0.635701
			-0.846970 -0.056220 -0.528660
			-0.772766 -0.034682 -0.633743
			-0.811487 -0.045394 -0.582605
			-0.321535 -0.095599 -0.942060
			-0.637360 -0.046149 -0.769183
			-0.011845 -0.074869  0.997123
			 0.026348 -0.066212  0.997458
			-0.345756 -0.098943  0.933093
			-0.049325 -0.077982  0.995734
			-0.616033 -0.088028  0.782787
			-0.838151 -0.115296  0.533113
			 0.903483 -0.011263  0.428477
			 0.898402 -0.045828  0.436776
			 0.920330 -0.013884  0.390897
			 0.947082  0.093247  0.307150
			 0.943794  0.056059  0.325747
			 0.938426  0.044082  0.342655
			 0.918308 -0.016301  0.395530
			 0.031047 -0.079191 -0.996376
			-0.011070 -0.060245 -0.998122
			 0.115337 -0.078058 -0.990255
			 0.041802 -0.074193 -0.996367
			-0.276076 -0.047670 -0.959953
			 0.094827 -0.088993 -0.991508
			 0.994979  0.059473  0.080501
			 0.989403  0.123391 -0.076524
			 0.944027  0.036158  0.327880
			 0.918160 -0.003631  0.396193
			 0.899554 -0.006549  0.436761
			 0.941660  0.087058 -0.325111
			 0.736637  0.027145 -0.675744
			 0.847070  0.008899 -0.531406
			 0.758740 -0.071661 -0.647440
			 0.495902 -0.008825 -0.868334
			 0.558349  0.015711 -0.829458
			 0.292544 -0.069498 -0.953723
			 0.049983 -0.098406 -0.993890
			 0.028515 -0.050221 -0.998331
			-0.059450 -0.049617 -0.996997
			 0.054239 -0.051521  0.997198
			 0.116257 -0.025249  0.992898
			 0.874891 -0.065109  0.479924
			 0.854672 -0.101192  0.509211
			 0.886990 -0.071698  0.456188
			 0.762353 -0.019351  0.646872
			 0.821575 -0.074288  0.565240
			 0.268000 -0.018580  0.963240
			 0.632599 -0.047844  0.773001
			 0.453943 -0.120504  0.882845
			 0.235884 -0.114709  0.964987
			-0.850844 -0.068506  0.520933
			-0.976609 -0.053456  0.208274
			-0.983353 -0.070861  0.167317
			-0.993969 -0.080956  0.073972
			-0.903805 -0.037843  0.426268
			-0.776240 -0.009718  0.630363
			-0.903214 -0.112700  0.414129
			-0.927856 -0.101473  0.358867
			-0.786505 -0.105262  0.608548
			-0.855280 -0.089861 -0.510314
			-0.997321 -0.072944  0.005531
			-0.953272 -0.086002 -0.289613
			-0.986885 -0.066766 -0.146971
			-0.893624 -0.109658 -0.435213
			-0.810237 -0.061502 -0.582866
			-0.571017 -0.037780 -0.820068
			-0.752493 -0.040290 -0.657367
			-0.776385 -0.041224 -0.628909
			 0.065002 -0.077262  0.994890
			-0.282648 -0.049422  0.957950
			-0.005010 -0.073888  0.997254
			-0.100479 -0.036647  0.994264
			-0.491635 -0.031522  0.870230
			 0.916893 -0.027288  0.398200
			 0.952036  0.082934  0.294532
			 0.937413  0.054996  0.343849
			 0.938902  0.029250  0.342940
			 0.059804 -0.083430 -0.994718
			-0.040613 -0.057262 -0.997533
			 0.000108 -0.073987 -0.997259
			-0.110389 -0.064892 -0.991768
			 0.088472 -0.093777 -0.991654
			 0.999639  0.026727  0.002683
			 0.969951  0.061368  0.235431
			 0.915116  0.021908  0.402594
			 0.922588 -0.005621  0.385745
			 0.952943 -0.004412  0.303117
			 0.943927  0.010042  0.330003
			 0.919803 -0.005268  0.392345
			 0.968132 -0.043751 -0.246588
			 0.814781  0.064816 -0.576134
			 0.904586  0.023906 -0.425620
			 0.654418 -0.054828 -0.754143
			 0.355164 -0.105291 -0.928855
			 0.043949 -0.083457 -0.995542
			-0.045120 -0.073176 -0.996298
			 0.127942 -0.077834  0.988723
			 0.883779 -0.081347  0.460779
			 0.880787 -0.045283  0.471343
			 0.907832 -0.016040  0.419028
			 0.847575  0.001922  0.530673
			 0.861758  0.004950  0.507296
			 0.795929 -0.033918  0.604440
			 0.680465 -0.031892  0.732086
			 0.181982 -0.146416  0.972340
			 0.530848 -0.074913  0.844149
			 0.266903 -0.089919  0.959519
			 0.070192 -0.133021  0.988625
			-0.931903  0.009033  0.362595
			-0.864155  0.101484  0.492887
			-0.957776 -0.035096  0.285364
			-0.937768 -0.022909  0.346505
			-0.978431 -0.089877  0.185997
			-0.986305 -0.059372  0.153873
			-0.673055  0.024744  0.739179
			-0.423804  0.047188  0.904524
			-0.484476 -0.049851  0.873383
			-0.696556 -0.071537  0.713927
			-0.748938 -0.053866  0.660447
			-0.793592  0.050262  0.606371
			-0.449639 -0.006210  0.893189
			-0.788667 -0.095460 -0.607365
			-0.828632 -0.118712 -0.547061
			-0.984285 -0.060148  0.166026
			-0.997848 -0.062584 -0.019547
			-0.913812 -0.096082 -0.394608
			-0.956932 -0.082008 -0.278489
			-0.976883 -0.058108 -0.205724
			-0.984422 -0.067965 -0.162152
			-0.843305 -0.127325 -0.522135
			-0.740882 -0.051654 -0.669646
			-0.368675 -0.051289 -0.928142
			-0.672135 -0.031890 -0.739742
			-0.230051  0.022904  0.972909
			 0.025672 -0.090446  0.995570
			 0.030831  0.000516  0.999525
			-0.033200  0.008392  0.999413
			-0.099180  0.019415  0.994880
			-0.195373  0.049927  0.979457
			 0.942889  0.067076  0.326285
			 0.918959  0.055133  0.390480
			 0.088805 -0.078655 -0.992939
			 0.091609 -0.054314 -0.994313
			 0.003513 -0.074166 -0.997240
			-0.027435 -0.075899 -0.996738
			 0.999056 -0.004886  0.043175
			 0.959430 -0.026473  0.280702
			 0.950094  0.012486  0.311712
			 0.923577  0.007192  0.383346
			 0.915659  0.004508  0.401931
			 0.957595 -0.015313  0.287712
			 0.971114 -0.024793  0.237326
			 0.955731 -0.050545  0.289870
			 0.926833 -0.003425  0.375457
			 0.958312 -0.002528  0.285711
			 0.969699  0.066638 -0.235040
			 0.994351  0.091059 -0.054544
			 0.837755 -0.029723 -0.545236
			 0.996280 -0.000463 -0.086179
			 0.947528  0.040059 -0.317154
			 0.730246 -0.063311 -0.680244
			 0.811454  0.059821 -0.581347
			 0.622029 -0.156397 -0.767215
			 0.351083 -0.096139 -0.931396
			 0.381857 -0.102460 -0.918524
			 0.312755 -0.137092 -0.939888
			 0.099959 -0.106772 -0.989246
			-0.048524 -0.087846 -0.994951
			-0.034140 -0.091394 -0.995229
			 0.905143  0.019994  0.424637
			 0.900896  0.038026  0.432367
			 0.868008 -0.091296  0.488086
			 0.905054 -0.027452  0.424410
			 0.811980 -0.073035  0.579098
			 0.733707 -0.012511  0.679351
			 0.512790  0.020213  0.858276
			 0.637954  0.057499  0.767925
			 0.073483 -0.049841  0.996050
			 0.285521  0.040985  0.957496
			 0.100530  0.054307  0.993451
			-0.661809  0.222209  0.715983
			-0.627532  0.212514  0.749027
			-0.771882  0.061400  0.632794
			-0.901283 -0.051694  0.430136
			-0.960046 -0.068542  0.271319
			-0.937079 -0.007575  0.349035
			-0.919679 -0.010898  0.392519
			-0.260041 -0.026043  0.965246
			-0.276747 -0.109915  0.954636
			-0.499393 -0.020554  0.866131
			-0.582268  0.107347  0.805879
			-0.704150 -0.082986 -0.705185
			-0.773733 -0.108945 -0.624074
			-0.928349 -0.040357  0.369513
			-0.981521 -0.054821  0.183336
			-0.996166 -0.080803  0.033523
			-0.859379 -0.101515 -0.501162
			-0.911976 -0.069310 -0.404347
			-0.858962 -0.067583 -0.507559
			-0.953315 -0.067949 -0.294232
			-0.952763 -0.073449 -0.294698
			-0.979680 -0.137326 -0.146182
			-0.954030 -0.096033 -0.283909
			-0.790728 -0.098613 -0.604172
			-0.518143 -0.039889 -0.854363
			-0.132210 -0.060989 -0.989344
			 0.016733  0.078827  0.996748
			 0.055056  0.081450  0.995156
			-0.073831  0.091437  0.993070
			 0.003855  0.089544  0.995975
			-0.062178 -0.057186  0.996425
			 0.909733  0.045697  0.412672
			 0.080950 -0.062742 -0.994741
			-0.008108 -0.080807 -0.996697
			 0.086657 -0.053385 -0.994807
			 0.151530 -0.039040 -0.987681
			 0.980003  0.026546  0.197204
			 0.935665 -0.011962  0.352687
			 0.917436 -0.021767  0.397286
			 0.922893 -0.018799  0.384598
			 0.952394 -0.006728  0.304797
			 0.974296 -0.011151  0.224996
			 0.947456 -0.044082  0.316835
			 0.952090 -0.021613  0.305054
			 0.911259 -0.114438  0.395614
			 0.926061 -0.095038  0.365212
			 0.970053 -0.003142  0.242874
			 0.983421  0.026023  0.179461
			 0.984577 -0.170790 -0.037936
			 0.977838 -0.090343  0.188869
			 0.919688 -0.070466 -0.386275
			 0.813546 -0.149077 -0.562067
			 0.673833 -0.149681 -0.723564
			 0.642352 -0.229711 -0.731174
			 0.336222 -0.107114 -0.935672
			 0.111164 -0.063218 -0.991789
			-0.054020 -0.112486 -0.992184
			 0.009520 -0.106790 -0.994236
			 0.873232 -0.121610  0.471887
			 0.873389 -0.057997  0.483557
			 0.780800 -0.043614  0.623257
			 0.630405  0.011514  0.776181
			 0.489226  0.116053  0.864401
			 0.289449  0.148206  0.945650
			 0.465191  0.138553  0.874300
			 0.121340  0.121191  0.985185
			-0.489663  0.272763  0.828149
			-0.499610  0.210010  0.840408
			-0.577328  0.094791  0.810991
			-0.721477  0.002754  0.692433
			-0.859824 -0.019251  0.510228
			-0.814804  0.027114  0.579103
			-0.787773  0.015546  0.615769
			-0.802578 -0.012994  0.596406
			-0.093817 -0.143642  0.985173
			-0.144161 -0.059705  0.987752
			-0.335119 -0.054317  0.940609
			-0.288420  0.060903  0.955565
			-0.428524  0.153425  0.890409
			-0.557393 -0.070591 -0.827242
			-0.729872 -0.090009 -0.677632
			-0.669265 -0.080061 -0.738697
			-0.915698 -0.040060  0.399867
			-0.963050 -0.045770  0.265407
			-0.958513 -0.068714  0.276644
			-0.990467 -0.105044  0.089114
			-0.834097 -0.058798 -0.548475
			-0.861161 -0.096948 -0.499002
			-0.783505 -0.075926 -0.616729
			-0.950147 -0.060993 -0.305779
			-0.880653 -0.144365 -0.451231
			-0.958260 -0.030575 -0.284258
			-0.992294 -0.103514  0.068102
			-0.931668 -0.205850 -0.299366
			-0.984930 -0.152695 -0.081219
			-0.906080 -0.166484 -0.388975
			-0.933183 -0.068039 -0.352904
			-0.156387 -0.053210 -0.986262
			-0.198329 -0.069673 -0.977656
			 0.052446  0.093350  0.994251
			 0.110797  0.016514  0.993706
			 0.060503 -0.131718  0.989439
			 0.089015 -0.058189 -0.994329
			 0.027394 -0.118164 -0.992616
			-0.032194 -0.142080 -0.989332
			 0.121620 -0.088393 -0.988633
			 0.919887 -0.039728  0.390167
			 0.936558 -0.056731  0.345892
			 0.948488 -0.035228  0.314847
			 0.945825 -0.004441  0.324647
			 0.960129  0.011910  0.279304